# vtk DataFile Version 3.0
MOAB 4.9.0
ASCII
DATASET UNSTRUCTURED_GRID
POINTS 1225 double
0 -0.5 0.5
0 0.5 0.5
0 -0.3333333333 0.5
0 -0.1666666667 0.5
0 0 0.5
0 0.1666666667 0.5
0 0.3333333333 0.5
0 0.5 -0.5
0 0.5 0.3333333333
0 0.5 0.1666666667
0 0.5 0
0 0.5 -0.1666666667
0 0.5 -0.3333333333
0 -0.5 -0.5
0 0.3333333333 -0.5
0 0.1666666667 -0.5
0 0 -0.5
0 -0.1666666667 -0.5
0 -0.3333333333 -0.5
0 -0.5 -0.3333333333
0 -0.5 -0.1666666667
0 -0.5 0
0 -0.5 0.1666666667
0 -0.5 0.3333333333
0 -0.3333333333 0.3333333333
0 -0.1666666667 0.3333333333
0 -6.938893904e-18 0.3333333333
0 0.1666666667 0.3333333333
0 0.3333333333 0.3333333333
0 -0.3333333333 0.1666666667
0 -0.1666666667 0.1666666667
0 -1.387778781e-17 0.1666666667
0 0.1666666667 0.1666666667
0 0.3333333333 0.1666666667
0 -0.3333333333 0
0 -0.1666666667 0
0 0 0
0 0.1666666667 0
0 0.3333333333 0
0 -0.3333333333 -0.1666666667
0 -0.1666666667 -0.1666666667
0 0 -0.1666666667
0 0.1666666667 -0.1666666667
0 0.3333333333 -0.1666666667
0 -0.3333333333 -0.3333333333
0 -0.1666666667 -0.3333333333
0 0 -0.3333333333
0 0.1666666667 -0.3333333333
0 0.3333333333 -0.3333333333
2.5 -0.5 -0.5
0.2083333333 -0.5 -0.5
0.4166666667 -0.5 -0.5
0.625 -0.5 -0.5
0.8333333333 -0.5 -0.5
1.041666667 -0.5 -0.5
1.25 -0.5 -0.5
1.458333333 -0.5 -0.5
1.666666667 -0.5 -0.5
1.875 -0.5 -0.5
2.083333333 -0.5 -0.5
2.291666667 -0.5 -0.5
2.5 -0.5 0.5
2.5 -0.5 0.3333333333
2.5 -0.5 0.1666666667
2.5 -0.5 0
2.5 -0.5 -0.1666666667
2.5 -0.5 -0.3333333333
2.291666667 -0.5 0.5
2.083333333 -0.5 0.5
1.875 -0.5 0.5
1.666666667 -0.5 0.5
1.458333333 -0.5 0.5
1.25 -0.5 0.5
1.041666667 -0.5 0.5
0.8333333333 -0.5 0.5
0.625 -0.5 0.5
0.4166666667 -0.5 0.5
0.2083333333 -0.5 0.5
0.2083333333 -0.5 -0.3333333333
0.4166666667 -0.5 -0.3333333333
0.625 -0.5 -0.3333333333
0.8333333333 -0.5 -0.3333333333
1.041666667 -0.5 -0.3333333333
1.25 -0.5 -0.3333333333
1.458333333 -0.5 -0.3333333333
1.666666667 -0.5 -0.3333333333
1.875 -0.5 -0.3333333333
2.083333333 -0.5 -0.3333333333
2.291666667 -0.5 -0.3333333333
0.2083333333 -0.5 -0.1666666667
0.4166666667 -0.5 -0.1666666667
0.625 -0.5 -0.1666666667
0.8333333333 -0.5 -0.1666666667
1.041666667 -0.5 -0.1666666667
1.25 -0.5 -0.1666666667
1.458333333 -0.5 -0.1666666667
1.666666667 -0.5 -0.1666666667
1.875 -0.5 -0.1666666667
2.083333333 -0.5 -0.1666666667
2.291666667 -0.5 -0.1666666667
0.2083333333 -0.5 0
0.4166666667 -0.5 0
0.625 -0.5 0
0.8333333333 -0.5 0
1.041666667 -0.5 0
1.25 -0.5 0
1.458333333 -0.5 0
1.666666667 -0.5 0
1.875 -0.5 0
2.083333333 -0.5 0
2.291666667 -0.5 0
0.2083333333 -0.5 0.1666666667
0.4166666667 -0.5 0.1666666667
0.625 -0.5 0.1666666667
0.8333333333 -0.5 0.1666666667
1.041666667 -0.5 0.1666666667
1.25 -0.5 0.1666666667
1.458333333 -0.5 0.1666666667
1.666666667 -0.5 0.1666666667
1.875 -0.5 0.1666666667
2.083333333 -0.5 0.1666666667
2.291666667 -0.5 0.1666666667
0.2083333333 -0.5 0.3333333333
0.4166666667 -0.5 0.3333333333
0.625 -0.5 0.3333333333
0.8333333333 -0.5 0.3333333333
1.041666667 -0.5 0.3333333333
1.25 -0.5 0.3333333333
1.458333333 -0.5 0.3333333333
1.666666667 -0.5 0.3333333333
1.875 -0.5 0.3333333333
2.083333333 -0.5 0.3333333333
2.291666667 -0.5 0.3333333333
2.5 0.5 -0.5
2.291666667 0.5 -0.5
2.083333333 0.5 -0.5
1.875 0.5 -0.5
1.666666667 0.5 -0.5
1.458333333 0.5 -0.5
1.25 0.5 -0.5
1.041666667 0.5 -0.5
0.8333333333 0.5 -0.5
0.625 0.5 -0.5
0.4166666667 0.5 -0.5
0.2083333333 0.5 -0.5
2.5 -0.3333333333 -0.5
2.5 -0.1666666667 -0.5
2.5 0 -0.5
2.5 0.1666666667 -0.5
2.5 0.3333333333 -0.5
0.2083333333 0.3333333333 -0.5
0.4166666667 0.3333333333 -0.5
0.625 0.3333333333 -0.5
0.8333333333 0.3333333333 -0.5
1.041666667 0.3333333333 -0.5
1.25 0.3333333333 -0.5
1.458333333 0.3333333333 -0.5
1.666666667 0.3333333333 -0.5
1.875 0.3333333333 -0.5
2.083333333 0.3333333333 -0.5
2.291666667 0.3333333333 -0.5
0.2083333333 0.1666666667 -0.5
0.4166666667 0.1666666667 -0.5
0.625 0.1666666667 -0.5
0.8333333333 0.1666666667 -0.5
1.041666667 0.1666666667 -0.5
1.25 0.1666666667 -0.5
1.458333333 0.1666666667 -0.5
1.666666667 0.1666666667 -0.5
1.875 0.1666666667 -0.5
2.083333333 0.1666666667 -0.5
2.291666667 0.1666666667 -0.5
0.2083333333 0 -0.5
0.4166666667 0 -0.5
0.625 0 -0.5
0.8333333333 0 -0.5
1.041666667 0 -0.5
1.25 0 -0.5
1.458333333 0 -0.5
1.666666667 0 -0.5
1.875 0 -0.5
2.083333333 0 -0.5
2.291666667 0 -0.5
0.2083333333 -0.1666666667 -0.5
0.4166666667 -0.1666666667 -0.5
0.625 -0.1666666667 -0.5
0.8333333333 -0.1666666667 -0.5
1.041666667 -0.1666666667 -0.5
1.25 -0.1666666667 -0.5
1.458333333 -0.1666666667 -0.5
1.666666667 -0.1666666667 -0.5
1.875 -0.1666666667 -0.5
2.083333333 -0.1666666667 -0.5
2.291666667 -0.1666666667 -0.5
0.2083333333 -0.3333333333 -0.5
0.4166666667 -0.3333333333 -0.5
0.625 -0.3333333333 -0.5
0.8333333333 -0.3333333333 -0.5
1.041666667 -0.3333333333 -0.5
1.25 -0.3333333333 -0.5
1.458333333 -0.3333333333 -0.5
1.666666667 -0.3333333333 -0.5
1.875 -0.3333333333 -0.5
2.083333333 -0.3333333333 -0.5
2.291666667 -0.3333333333 -0.5
2.5 0.5 0.5
2.5 0.5 -0.3333333333
2.5 0.5 -0.1666666667
2.5 0.5 0
2.5 0.5 0.1666666667
2.5 0.5 0.3333333333
2.5 0.3333333333 0.5
2.5 0.1666666667 0.5
2.5 0 0.5
2.5 -0.1666666667 0.5
2.5 -0.3333333333 0.5
2.5 0.3333333333 -0.3333333333
2.5 0.3333333333 -0.1666666667
2.5 0.3333333333 -6.938893904e-18
2.5 0.3333333333 0.1666666667
2.5 0.3333333333 0.3333333333
2.5 0.1666666667 -0.3333333333
2.5 0.1666666667 -0.1666666667
2.5 0.1666666667 -1.387778781e-17
2.5 0.1666666667 0.1666666667
2.5 0.1666666667 0.3333333333
2.5 0 -0.3333333333
2.5 0 -0.1666666667
2.5 0 0
2.5 0 0.1666666667
2.5 0 0.3333333333
2.5 -0.1666666667 -0.3333333333
2.5 -0.1666666667 -0.1666666667
2.5 -0.1666666667 0
2.5 -0.1666666667 0.1666666667
2.5 -0.1666666667 0.3333333333
2.5 -0.3333333333 -0.3333333333
2.5 -0.3333333333 -0.1666666667
2.5 -0.3333333333 0
2.5 -0.3333333333 0.1666666667
2.5 -0.3333333333 0.3333333333
0.2083333333 0.5 0.5
0.4166666667 0.5 0.5
0.625 0.5 0.5
0.8333333333 0.5 0.5
1.041666667 0.5 0.5
1.25 0.5 0.5
1.458333333 0.5 0.5
1.666666667 0.5 0.5
1.875 0.5 0.5
2.083333333 0.5 0.5
2.291666667 0.5 0.5
0.2083333333 -0.3333333333 0.5
0.4166666667 -0.3333333333 0.5
0.625 -0.3333333333 0.5
0.8333333333 -0.3333333333 0.5
1.041666667 -0.3333333333 0.5
1.25 -0.3333333333 0.5
1.458333333 -0.3333333333 0.5
1.666666667 -0.3333333333 0.5
1.875 -0.3333333333 0.5
2.083333333 -0.3333333333 0.5
2.291666667 -0.3333333333 0.5
0.2083333333 -0.1666666667 0.5
0.4166666667 -0.1666666667 0.5
0.625 -0.1666666667 0.5
0.8333333333 -0.1666666667 0.5
1.041666667 -0.1666666667 0.5
1.25 -0.1666666667 0.5
1.458333333 -0.1666666667 0.5
1.666666667 -0.1666666667 0.5
1.875 -0.1666666667 0.5
2.083333333 -0.1666666667 0.5
2.291666667 -0.1666666667 0.5
0.2083333333 0 0.5
0.4166666667 0 0.5
0.625 0 0.5
0.8333333333 0 0.5
1.041666667 0 0.5
1.25 0 0.5
1.458333333 0 0.5
1.666666667 0 0.5
1.875 0 0.5
2.083333333 0 0.5
2.291666667 0 0.5
0.2083333333 0.1666666667 0.5
0.4166666667 0.1666666667 0.5
0.625 0.1666666667 0.5
0.8333333333 0.1666666667 0.5
1.041666667 0.1666666667 0.5
1.25 0.1666666667 0.5
1.458333333 0.1666666667 0.5
1.666666667 0.1666666667 0.5
1.875 0.1666666667 0.5
2.083333333 0.1666666667 0.5
2.291666667 0.1666666667 0.5
0.2083333333 0.3333333333 0.5
0.4166666667 0.3333333333 0.5
0.625 0.3333333333 0.5
0.8333333333 0.3333333333 0.5
1.041666667 0.3333333333 0.5
1.25 0.3333333333 0.5
1.458333333 0.3333333333 0.5
1.666666667 0.3333333333 0.5
1.875 0.3333333333 0.5
2.083333333 0.3333333333 0.5
2.291666667 0.3333333333 0.5
0.2083333333 0.5 0.3333333333
0.4166666667 0.5 0.3333333333
0.625 0.5 0.3333333333
0.8333333333 0.5 0.3333333333
1.041666667 0.5 0.3333333333
1.25 0.5 0.3333333333
1.458333333 0.5 0.3333333333
1.666666667 0.5 0.3333333333
1.875 0.5 0.3333333333
2.083333333 0.5 0.3333333333
2.291666667 0.5 0.3333333333
0.2083333333 0.5 0.1666666667
0.4166666667 0.5 0.1666666667
0.625 0.5 0.1666666667
0.8333333333 0.5 0.1666666667
1.041666667 0.5 0.1666666667
1.25 0.5 0.1666666667
1.458333333 0.5 0.1666666667
1.666666667 0.5 0.1666666667
1.875 0.5 0.1666666667
2.083333333 0.5 0.1666666667
2.291666667 0.5 0.1666666667
0.2083333333 0.5 0
0.4166666667 0.5 0
0.625 0.5 0
0.8333333333 0.5 0
1.041666667 0.5 0
1.25 0.5 0
1.458333333 0.5 0
1.666666667 0.5 0
1.875 0.5 0
2.083333333 0.5 0
2.291666667 0.5 0
0.2083333333 0.5 -0.1666666667
0.4166666667 0.5 -0.1666666667
0.625 0.5 -0.1666666667
0.8333333333 0.5 -0.1666666667
1.041666667 0.5 -0.1666666667
1.25 0.5 -0.1666666667
1.458333333 0.5 -0.1666666667
1.666666667 0.5 -0.1666666667
1.875 0.5 -0.1666666667
2.083333333 0.5 -0.1666666667
2.291666667 0.5 -0.1666666667
0.2083333333 0.5 -0.3333333333
0.4166666667 0.5 -0.3333333333
0.625 0.5 -0.3333333333
0.8333333333 0.5 -0.3333333333
1.041666667 0.5 -0.3333333333
1.25 0.5 -0.3333333333
1.458333333 0.5 -0.3333333333
1.666666667 0.5 -0.3333333333
1.875 0.5 -0.3333333333
2.083333333 0.5 -0.3333333333
2.291666667 0.5 -0.3333333333
0.2083333333 -0.3333333333 -0.3333333333
0.4166666667 -0.3333333333 -0.3333333333
0.625 -0.3333333333 -0.3333333333
0.8333333333 -0.3333333333 -0.3333333333
1.041666667 -0.3333333333 -0.3333333333
1.25 -0.3333333333 -0.3333333333
1.458333333 -0.3333333333 -0.3333333333
1.666666667 -0.3333333333 -0.3333333333
1.875 -0.3333333333 -0.3333333333
2.083333333 -0.3333333333 -0.3333333333
2.291666667 -0.3333333333 -0.3333333333
0.2083333333 -0.1666666667 -0.3333333333
0.4166666667 -0.1666666667 -0.3333333333
0.625 -0.1666666667 -0.3333333333
0.8333333333 -0.1666666667 -0.3333333333
1.041666667 -0.1666666667 -0.3333333333
1.25 -0.1666666667 -0.3333333333
1.458333333 -0.1666666667 -0.3333333333
1.666666667 -0.1666666667 -0.3333333333
1.875 -0.1666666667 -0.3333333333
2.083333333 -0.1666666667 -0.3333333333
2.291666667 -0.1666666667 -0.3333333333
0.2083333333 0 -0.3333333333
0.4166666667 1.387778781e-17 -0.3333333333
0.625 -1.387778781e-17 -0.3333333333
0.8333333333 -1.387778781e-17 -0.3333333333
1.041666667 5.551115123e-17 -0.3333333333
1.25 1.387778781e-17 -0.3333333333
[...]
POINT_DATA 1225
SCALARS KDE_TALLY_TAG_0-0.01 double 1
LOOKUP_TABLE default
0.7487578533 
0.7501352481 
0.7768443034 
0.7256048192 
0.720697317 
0.7686936709 
0.7327204484 
0.7424383254 
0.7443186478 
0.7106134652 
0.7790134313 
0.7633293171 
0.765978085 
0.7717008651 
0.7603995319 
0.7544164564 
0.7525615465 
0.760310726 
0.7587756723 
0.7757049444 
0.7204931198 
0.7681336101 
0.758618985 
0.7610334992 
0.7760513093 
0.7380385863 
0.7588326822 
0.7377234781 
0.7435685226 
0.7555249765 
0.7567491439 
0.7882341269 
0.7592928405 
0.7539280609 
0.7304893377 
0.7506892882 
0.7142386999 
0.7564629252 
0.7764644183 
0.7272675406 
0.7604484381 
0.7518022506 
0.7615993971 
0.7663168455 
0.7583548141 
0.7611878977 
0.7669725231 
0.7528385823 
0.7553863715 
0.1390712487 
0.7124206931 
0.7403890074 
0.7008711667 
0.6676708386 
0.6671298765 
0.6214518503 
0.5579470808 
0.489082274 
0.4607540756 
0.3821322327 
0.3135677824 
0.154243773 
0.1537760118 
0.1517361965 
0.1520852521 
0.1490547711 
0.1499355523 
0.3324309113 
0.3996900079 
0.4580109991 
0.5188213466 
0.5370931595 
0.6204427513 
0.6206187265 
0.6540426329 
0.6907453365 
0.7276698916 
0.7951915827 
0.708706709 
0.7114959574 
0.6901987457 
0.6768894987 
0.6760800276 
0.5961022458 
0.5596359387 
0.5016927065 
0.4700207072 
0.3848708968 
0.3152761499 
0.7271536543 
0.7250277656 
0.6792447168 
0.657956787 
0.6415524961 
0.5827349855 
0.5762857189 
0.5178090676 
0.4511202603 
0.3848106097 
0.3163135253 
0.7448767325 
0.743033316 
0.7030347577 
0.660650911 
0.6310330633 
0.608919366 
0.553362668 
0.5001943158 
0.4603032343 
0.39724227 
0.3153596771 
0.7100496674 
0.7258858228 
0.7121337769 
0.6483975611 
0.6198238874 
0.5870601225 
0.5896273047 
0.5081037523 
0.4351691375 
0.3890944578 
0.3094286943 
0.7556445746 
0.7149942187 
0.7216233658 
0.6424941154 
0.6693278239 
0.6010716245 
0.554778264 
0.512771723 
0.4293697894 
0.4064385335 
0.346517392 
0.16486933 
0.2912884708 
0.3868826784 
0.4705789386 
0.5141982793 
0.5512637792 
0.5718168517 
0.6355105184 
0.6582380964 
0.7153104651 
0.7415418057 
0.7496386271 
0.1491833048 
0.153785712 
0.1669280816 
0.1469961344 
0.1503364328 
0.7402420541 
0.7253481654 
0.7231203352 
0.6681772856 
0.6233681708 
0.5948820496 
0.5461424146 
0.4940410795 
0.4302710979 
0.3805793968 
0.2945142414 
0.7742263766 
0.7163450004 
0.6867551921 
0.6837684315 
0.6199914537 
0.6303299565 
0.5483070214 
0.5334539596 
0.4879398655 
0.3942258329 
0.3046934772 
0.7544525026 
0.7088301441 
0.7118291675 
0.6977431796 
0.6656319276 
0.6164350423 
0.5898044133 
0.4867379035 
0.4580956108 
0.3546240426 
0.3082015296 
0.7665021782 
0.7066796968 
0.7028993214 
0.7224893338 
0.6141151849 
0.603450739 
0.5604774561 
0.5029460683 
0.4494301185 
0.3706828415 
0.3140226466 
0.7540111133 
0.7161770911 
0.6867754585 
0.6608323411 
0.6509202206 
0.5734760814 
0.5955462144 
0.4982605559 
0.4479686995 
0.3741688169 
0.3200308345 
0.151439901 
0.1675208713 
0.1536133448 
0.1573122894 
0.1596704225 
0.1393651562 
0.160447626 
0.1615237102 
0.1359060743 
0.1576585962 
0.1666114146 
0.1618981542 
0.1480687976 
0.1674879939 
0.1651479612 
0.1591902574 
0.1454930969 
0.1634842691 
0.1512076425 
0.1489418955 
0.1641448532 
0.1450492989 
0.1571833979 
0.1612680661 
0.1604070803 
0.1500017649 
0.1554077958 
0.1723340511 
0.1628107159 
0.1524472148 
0.1419974969 
0.1671397008 
0.1564910454 
0.1696661413 
0.1386653926 
0.160850977 
0.7579760873 
0.7469531502 
0.7013536352 
0.6605253521 
0.6164489841 
0.6322338671 
0.5472863815 
0.4904684872 
0.4320292142 
0.3874585735 
0.3151834174 
0.7359901531 
0.7295047301 
0.703130675 
0.6594355951 
0.6243894842 
0.5912948496 
0.5908542498 
0.5238412002 
0.4497897883 
0.4110876872 
0.326986844 
0.6915878111 
0.7430674186 
0.683001475 
0.6712518644 
0.6356452838 
0.6341293905 
0.5541323756 
0.5252794424 
0.4655865327 
0.4111017938 
0.3314566961 
0.7673897558 
0.6918902234 
0.6746233975 
0.6663850271 
0.6451183672 
0.6011014798 
0.567743163 
0.5422612299 
0.4476319632 
0.3945803381 
0.3211577271 
0.7328876766 
0.6956592616 
0.698370616 
0.668366739 
0.6392107052 
0.6004662252 
0.5660524154 
0.5216228029 
0.4449706091 
0.379968392 
0.288034681 
0.7420827271 
0.6976980425 
0.7038548842 
0.6551842609 
0.6570026772 
0.6186161974 
0.5639223185 
0.5164721809 
0.4690061484 
0.3849519634 
0.3155630533 
0.7191548611 
0.7105069046 
0.7115099863 
0.6714028128 
0.6532091345 
0.5966987239 
0.5653928267 
0.501605623 
0.4343866844 
0.372513975 
0.2970858233 
0.7253362786 
0.7078752633 
0.6987922239 
0.7367382985 
0.641902384 
0.6301491617 
0.5477715492 
0.4828976982 
0.4426009232 
0.3844214093 
0.3296258937 
0.7316440282 
0.7127799328 
0.7022645606 
0.6433121979 
0.6400319203 
0.5931161264 
0.5407797032 
0.5000204609 
0.4633737947 
0.3937719499 
0.3197459442 
0.7691061107 
0.7420100224 
0.7117776198 
0.6698359644 
0.6295086836 
0.5935623124 
0.5361980353 
0.4800625277 
0.4809328941 
0.3757493496 
0.3227791622 
0.7449751879 
0.6995777025 
0.7364601091 
0.6857459613 
0.6506608973 
0.601759096 
0.5648698873 
0.4976042419 
0.4376404752 
0.3641400131 
0.3278868983 
0.7287549563 
0.7085021861 
0.7072350346 
0.6717521914 
0.6699423502 
0.5967630784 
0.533070471 
0.5069921217 
0.4506488916 
0.3894450615 
0.3217736015 
0.7546409073 
0.7198100471 
0.688363008 
0.6744463982 
0.6321294772 
0.6197773276 
0.5567250809 
0.5045536115 
0.4294636159 
0.3792395219 
0.3141137615 
0.7386287659 
0.7005972113 
0.7072051918 
0.6607051226 
0.6697400885 
0.5816218416 
0.5487397356 
0.4865160388 
0.4394606192 
0.3909431306 
0.3327183223 
0.7358659021 
0.7026299443 
0.6841534195 
0.6773772089 
0.6076052425 
0.5682546219 
0.5709466157 
0.5525787232 
0.4458949306 
0.3674706328 
0.2929692804 
0.7381176306 
0.7509574254 
0.6861883006 
0.6527335142 
0.6454856207 
0.6107866763 
0.5469229932 
0.5080288998 
0.4658557433 
0.3838048913 
0.3193689817 
0.7097147967 
0.7120714961 
0.7077526319 
0.6871179901 
0.627847489 
0.5901493284 
0.5556119337 
0.5112290762 
0.4508906449 
0.3933326587 
0.3535434465 
0.7364800352 
0.7585372172 
0.7200023847 
0.6560056687 
0.6650810498 
0.5792272484 
0.5855886094 
0.5258639874 
0.4518566969 
0.3670527159 
0.3181518936 
0.7228939113 
0.7006796644 
0.7255108413 
0.6809119316 
0.6106200452 
0.616321055 
0.6351909378 
0.5210294691 
0.469659258 
0.3853066015 
0.2930310541 
0.7885046189 
0.7222578184 
0.7008130704 
0.6770165342 
0.6082002287 
0.6061597289 
0.5962447246 
0.5325335255 
0.4575264013 
0.4118207141 
0.2976936937 
0.7305166342 
0.6979656928 
0.7120737323 
0.670757676 
0.6250048488 
0.5787767976 
0.5599940722 
0.5140180102 
0.4456258305 
0.3547133747 
0.3150386152 
0.7471014198 
0.7414650423 
0.7133882743 
0.6661711627 
0.6557542874 
0.6108281965 
0.5891147508 
0.5181557738 
0.4275990608 
0.4175735931 
0.3135242797 
0.7367589839 
0.7361308002 
0.6949259733 
0.644789301 
0.6571628673 
0.6147702853 
0.540018186 
0.4912907879 
0.4589663458 
0.3869720899 
0.302293059 
0.7761176945 
0.7348840274 
0.7029068457 
0.6255047169 
0.6132884748 
0.6170144262 
0.550137754 
0.5069513485 
0.4412383251 
0.413963924 
0.3152747713 
0.7334031957 
0.7047425747 
0.7100204645 
0.6896178847 
0.6508845879 
0.6171617659 
0.5962075024 
0.4806637888 
0.463927805 
0.358910619 
0.32086319 
0.7421644138 
0.7195265862 
0.6713176084 
0.6839755211 
0.6449320074 
0.6137780754 
0.5519852477 
0.5001791669 
0.4652631556 
0.3847581225 
0.3180881523 
0.7208827589 
0.7311486691 
0.6977017932 
0.6340025913 
0.6457210997 
0.613944774 
0.5587138119 
0.513044089 
0.4601513472 
0.4035197781 
0.3270875526 
0.7291165718 
0.7360993459 
0.7172506933 
0.6827615928 
0.633190364 
0.6025210712 
0.5523077806 
0.5279598761 
0.4543342798 
0.4061212262 
0.3119492581 
0.7259909745 
0.7460332361 
0.7323227891 
0.6701370989 
0.6710714312 
0.6256775121 
0.507074699 
0.5063159501 
0.4716605143 
0.3754320006 
0.3170455601 
0.7314097233 
0.766584746 
0.6953896025 
0.7160533537 
0.6407825519 
0.5995345145 
0.5516466334 
0.5104976803 
0.4578024731 
0.3991512828 
0.3326039233 
0.7211880737 
0.7097335114 
0.6991427049 
0.6938747295 
0.648336007 
0.6156305085 
0.5620370802 
0.4969394901 
0.4463251636 
0.378104556 
0.3157177404 
0.758256983 
0.7149947389 
0.690829555 
0.6884884332 
0.6468560176 
0.5974612396 
0.543337784 
0.5038054531 
0.4712207056 
0.4023082303 
0.3066918564 
0.7631424117 
0.7083238539 
0.7232030494 
0.6601958435 
0.6353326423 
0.611604452 
0.5750550109 
0.5222216079 
0.4480361553 
0.411671424 
0.332786603 
0.7456435528 
0.7397649805 
0.6871545102 
0.6733373347 
0.674900803 
0.5926219803 
0.5586128211 
0.5166259697 
0.4433577616 
0.3913023516 
0.313170154 
0.7408952007 
0.7575440866 
0.7261051562 
0.6439296477 
0.6862914649 
0.5827493995 
0.5674116165 
0.5155179057 
0.4751445826 
0.3766145746 
0.3300884724 
0.7131586436 
0.7146587701 
0.6781902075 
0.6900531736 
0.6331783934 
0.6088564379 
0.5870882209 
0.4913400371 
0.4273103231 
0.3826055744 
0.3082205952 
0 
0.03048965505 
0.01701126983 
0.007133047236 
0.005198410396 
0.0075549432 
0.003080588823 
0.002942449423 
0.00202198851 
0.003031163521 
0.0001150690913 
0.0003422390846 
0.0001097067189 
0.0009913478973 
0.0002276784545 
0.001225788389 
0.0004127482149 
0.000586395455 
0.0002080281791 
0.0005155876113 
0.001607467289 
0.001256513435 
0.0007487787283 
0.003460534168 
0.004167758625 
0.007065922151 
0.01367752797 
0.01489865827 
0.0258089161 
0.02857291678 
0.0119932175 
0.008856177258 
0.004668695814 
0.004457734632 
0.002068980582 
0.001381619389 
0.0004913916724 
0.0001714350515 
0.0008127117394 
0.000225553447 
0.02198318849 
0.01293957061 
0.01188566007 
0.006151383491 
0.00694799508 
0.003397309688 
0.001309392171 
0.0007388255744 
0.0007918147518 
0.0001181449473 
0.001023622446 
0.02522435025 
0.01308534459 
0.00857818578 
0.004998250564 
0.002627841718 
0.003968194571 
0.002606622053 
0.001995983541 
0.00130176597 
0 
8.665830326e-05 
0.02935902545 
0.01690491712 
0.0126890012 
0.006161604422 
0.003807966958 
0.003557042211 
0.001808518223 
0.001600403307 
0.000577547141 
0.002548429232 
0.0002735447917 
0.02436822288 
0.01513545814 
0.007927818919 
0.004994211285 
0.002472259094 
0.002405890428 
0.003512602607 
0.001669484273 
0.0002559820507 
0.0006574574706 
0.0008986932951 
9.10867426e-05 
0.0004662215022 
0.0003472279622 
0.002357112334 
0.0006661965626 
0.003480156878 
0.0002289321002 
0.003827265525 
0.00938058727 
0.0142366866 
0.01138351625 
0.02647215113 
9.304258269e-05 
0.000269891776 
0.0007512043084 
0.0002192411079 
0.0003059525534 
0.0342803193 
0.01300187659 
0.007326013072 
0.004304835072 
0.001964037293 
0.002473974579 
0.0009790447369 
0.003801093547 
0.0003439453586 
0.0005156628642 
0.00164053963 
0.02784628043 
0.01691562291 
0.0101311257 
0.005220281765 
0.004386845551 
0.001338330944 
0.001473481695 
0.002662142103 
0.0003582467282 
0.0001048759664 
0 
0.02200554437 
0.01326135936 
0.008968677 
0.00492185948 
0.003830372842 
0.001576839961 
0.002483608726 
0.001066384141 
0.0004253051963 
0.0006541482787 
0.000155323042 
0.02816403184 
0.0121583464 
0.009887483163 
0.004910631422 
0.00558933023 
0.002440535927 
0.003235508763 
0.001762650775 
0.001165039396 
0.0006310978002 
0.0009318929218 
0.02621267028 
0.01550249147 
0.009068202485 
0.006370482095 
0.004275824675 
0.001443290895 
0.002776068427 
0.000399265465 
0.0007065177559 
2.971844891e-05 
0.0002654645699 
0.0001528787799 
0.000795205907 
0.0004459217813 
0.0001344985959 
0.001087218695 
0.0003289914976 
0.0001728760921 
0.0005527987459 
7.840856884e-07 
0.0005276730346 
0.0002670551031 
0.0004205705395 
0.0007381028309 
0.0001018693734 
0.0006737672177 
3.715585743e-05 
0.0001352581275 
0.0003727444514 
0.000303147311 
2.534905146e-05 
0.0001618599806 
0.0004733830059 
0.0004782407857 
0.0008986985335 
0 
0.0009141272114 
0 
0.000473224481 
0.001262495536 
2.476757004e-05 
7.481266789e-05 
0.0001997578201 
4.028220568e-05 
0.000129324932 
0.0007595833506 
0 
0.02273609554 
0.01713652971 
0.008976723351 
0.009568231266 
0.003918295886 
0.003389922827 
0.00236116516 
0.004415778577 
0.0008144490847 
0.000396981257 
0.000917919369 
0.02440326779 
0.01518351889 
0.008707489667 
0.004109009975 
0.00275943855 
0.004888458828 
0.001322816961 
0.0006901942742 
0.0008621693788 
4.923243418e-05 
0.0004216124759 
0.01905378777 
0.01260838079 
0.009185182042 
0.008304617558 
0.004055575155 
0.001543767192 
0.001040699697 
0.005768287054 
0.0007558486682 
0.0008484518686 
0.0004908771318 
0.02239574042 
0.01089400791 
0.007888185189 
0.004174885306 
0.003746229507 
0.002556608638 
0.001748555883 
0.003849022154 
0.004000690048 
0.001294799947 
0.0003414667284 
0.02529588838 
0.0125140936 
0.008054577131 
0.00994028498 
0.005161272896 
0.002326917032 
0.002267157802 
0.003581765431 
0.0007757900685 
0.0003680528622 
0.002570464929 
0.03373123793 
0.01533178516 
0.00917231097 
0.008919765981 
0.008821207759 
0.005129929839 
0.002934459547 
0.001018631818 
0.0003174702913 
0.0007701103065 
0.0002706917879 
0.02927275881 
0.01987979236 
0.003771555536 
0.006213288003 
0.006021309579 
0.003256976477 
0.002065228272 
0.001115706374 
0.0001758610844 
0.0005713284078 
0.0004859900208 
0.02549861563 
0.01430968506 
0.0102659377 
0.005464550881 
0.007106275673 
0.004933179858 
0.0005251114855 
0.003167144634 
0.00171035963 
0.0002296754438 
0.001054344701 
0.02341631576 
0.01520466883 
0.005862687161 
0.007217007121 
0.002091348332 
0.00662216465 
0.001699291053 
0.002802576228 
0.00299474432 
0.000378203455 
0.0001684248035 
0.02808188724 
0.01272052375 
0.00667274956 
0.009504511553 
0.003948942844 
0.001168073101 
0.004100830718 
0.002011909918 
0.0005615576932 
0.003433611346 
0.0007656314906 
0.02793450977 
0.01087917306 
0.009975225348 
0.004694414969 
0.003633306844 
0.001544042095 
0.001077135762 
0.002072901591 
0.001671444531 
0.000550259182 
0.0001786008463 
0.02885401093 
0.01913111932 
0.011662245 
0.006550380322 
0.00459138389 
0.002511036655 
0.001665831333 
7.94745738e-05 
0.001818327078 
0.0009490536523 
0.002386201436 
0.03057971435 
0.01315004918 
0.01028043276 
0.004851038867 
0.004478007546 
0.002651624798 
0.001169431221 
0.002236772688 
0.0007485534193 
0.002368402218 
0.0005767401429 
0.01848746287 
0.01685223569 
0.005710751372 
0.005248090132 
0.003926785254 
0.003351990575 
0.003981313043 
0.000680702091 
0.001049609685 
0.001238432756 
0.0005086837139 
0.03347292603 
0.01504050345 
0.006113571138 
0.004850338487 
0.004321208036 
0.004277554372 
0.0002671210756 
9.973097696e-05 
0.001315249286 
9.665987679e-06 
0.00204384098 
0.03252990478 
0.01023622023 
0.005709859246 
0.003066026428 
0.002683533692 
0.001332496784 
0.003642797734 
0.001739457693 
0.002661253661 
0.0001467265532 
0.0006081388563 
0.02968398357 
0.02067797663 
0.008169348804 
0.004632011182 
0.006766436114 
0.001933198634 
0.004124605626 
0.0003993892203 
0.003365150785 
0.003125330028 
0.001133250855 
0.02333242341 
0.01266021733 
0.008034500434 
0.005495265536 
0.00748775302 
0.002354105046 
0.004167558509 
0.001359853406 
0.002139322711 
0.002989562629 
0.0005787658263 
0.02717012321 
0.0104995486 
0.01248524925 
0.00608695911 
0.0002095149015 
0.000751511669 
0.002605018494 
0.001680885745 
0.0005481983975 
4.624880354e-06 
0.0002202076034 
0.02558568184 
0.01386827633 
0.007445835505 
0.005483758591 
0.003372052596 
0.008053015908 
0.003007201067 
0.003942243849 
0.001914262813 
0 
0.000462878503 
0.02773261669 
0.01244385976 
0.005694749834 
0.004044479366 
0.002691524157 
0.002146174067 
0.001748431214 
0.001136213185 
0.001942266704 
0.001723297645 
0.0001899443242 
0.02929000801 
0.02212515024 
0.01024077971 
0.00636453567 
0.002225169245 
0.0008857383269 
0.0008913514967 
0.002362408239 
0.0002061964199 
0.001773622871 
0.001037599268 
0.03765744404 
0.01887313799 
0.01283546055 
0.004282394785 
0.002122333483 
0.004017395828 
0.00187659319 
0.00406492067 
0.002856806401 
0.0006693586675 
0.0003452348548 
0.02955041694 
0.01604597777 
0.01083990394 
0.01067723338 
0.005780998182 
0.001561978962 
0.00214313992 
0.001159567906 
0.0008469627978 
0.003213335596 
0.001791462393 
0.02736612377 
0.01285851962 
0.01098804267 
0.008017461418 
0.002356881987 
0.0004739768872 
0.001791378788 
0.001361571204 
0.0007497242845 
0.0003147322077 
0.001401646119 
0.02504965108 
0.01409438565 
0.008438406786 
0.00438131576 
0.003596659193 
0.004130692084 
0.002108611741 
0.0005182523112 
0.0009136198642 
0.00144370668 
0.001656717485 
0.03407587341 
0.01328307406 
0.005154045327 
0.004231138742 
0.005785067645 
0.002701612226 
0.000472150536 
0.002887301155 
0.001319859146 
0.002104970855 
0.0005168502105 
0.02766325398 
0.01432763043 
0.007703223537 
0.003479002703 
0.004465849131 
0.001845049657 
0.002831079937 
0.001185052766 
0.0003583276476 
8.91072224e-05 
0.0003896274436 
0.02804453174 
0.01433470682 
0.005689551968 
0.007007132805 
0.001242822425 
0.003977764864 
0.0009268939201 
0.001684210015 
0.001993850651 
0.004333744447 
0.001671554927 
0.02644379756 
0.01443134114 
0.009650722552 
0.01041303719 
0.004038542138 
0.004563089755 
0.001570288705 
0.0004331213456 
0.000955515486 
0 
4.28436356e-05 
0.02828201093 
0.01089614579 
0.008577639745 
0.005699305578 
0.007137428078 
0.002266199187 
0.0004631053097 
0.0002185718819 
7.963306807e-05 
0.001699058583 
0 
0.02526383337 
0.01459615937 
0.008298416689 
0.006696922297 
0.002170423488 
0.002727909158 
0.0004834534508 
0.0005898479908 
0.0007235882106 
0.0005121494708 
5.781657637e-05 
0.02360284827 
0.01260711446 
0.008427894657 
0.003979122005 
0.001819640664 
0.002360603793 
0.001441402719 
0.001572650498 
0.0009926438894 
0 
0.0003281212791 
0.0342487762 
0.009772726819 
0.005748382143 
0.006142923318 
0.005402580946 
0.002831832827 
0.0012988461 
0.001878290719 
0.001378449274 
0.001315075351 
0 
0.02156957297 
0.01271246783 
0.004473772605 
0.005747923214 
0.004903973895 
0.002197062607 
0.00462004506 
0.002532166786 
0.0004065863447 
0.000269704363 
0.00011393183 
0.02481328889 
0.01751815813 
0.009434077866 
0.002574952636 
0.002048620486 
0.003781712109 
0.001879327106 
0.0002538502219 
1.59324431e-05 
0.000984499159 
0.0001558163469 
SCALARS KDE_TALLY_TAG_0.01-2 double 1
LOOKUP_TABLE default
0.5778250508 
0.5914456462 
0.6006095828 
0.628007134 
0.6715407434 
0.6225578845 
0.6285756741 
0.5726725215 
0.5797258103 
0.5300862298 
0.6034057258 
0.6218117188 
0.5904069389 
0.6012563134 
0.6390022349 
0.6066047356 
0.6044799423 
0.6185969823 
0.6226315452 
0.6016648092 
0.6009176113 
0.5971274395 
0.6114516225 
0.6319120736 
0.5984558438 
0.6265279717 
0.6023155221 
0.6328470479 
0.599834091 
0.6181646515 
0.5920559227 
0.5827521907 
0.5777054347 
0.5990821513 
0.5959147356 
0.5957013568 
0.6100619527 
0.6078652969 
0.5718839463 
0.6545795946 
0.626236889 
0.6026939637 
0.6048241291 
0.5840292242 
0.5994979834 
0.5995623167 
0.6216760972 
0.6182330764 
0.6007844405 
0.4461240372 
0.582600547 
0.5980962215 
0.5425501191 
0.5581094324 
0.5915861015 
0.5181687156 
0.5089699638 
0.5064927123 
0.4689390015 
0.4910144753 
0.4297965599 
0.4525316384 
0.4525420599 
0.409093181 
0.4558002588 
0.4610517944 
0.4545636531 
0.4299094011 
0.490171004 
0.4923159447 
0.5351219049 
0.5020180945 
0.5258475728 
0.5329128864 
0.5837752192 
0.5630313768 
0.5920521677 
0.5928810461 
0.6055177617 
0.5894039415 
0.5903784612 
0.5823827417 
0.5438202556 
0.5169105357 
0.4966345832 
0.5055667657 
0.465901558 
0.43029176 
0.4351980683 
0.617404847 
0.5991403572 
0.5623011557 
0.549684253 
0.5436562805 
0.5181810439 
0.5080972575 
0.475619339 
0.4798085485 
0.4778035815 
0.4564263067 
0.5547254998 
0.5621369623 
0.5738509026 
0.5959086716 
0.5480385655 
0.523621532 
0.5070644642 
0.4497946197 
0.4885013889 
0.4667289883 
0.4446261257 
0.5681517683 
0.5860940594 
0.6157528775 
0.5817135848 
0.5564829233 
0.560336751 
0.4882999815 
0.4884695206 
0.4883778431 
0.4656394059 
0.4516727778 
0.6327538284 
0.5904089037 
0.5865908242 
0.5508545365 
0.5310742506 