# vtk DataFile Version 3.0
MOAB 4.9.0
ASCII
DATASET UNSTRUCTURED_GRID
POINTS 838 double
-12.5 0 -10
-12.5 -2.486898872 -9.685831611
-12.5 -4.817536741 -8.7630668
-12.5 -6.845471059 -7.289686274
-12.5 -8.443279255 -5.35826795
-12.5 -9.510565163 -3.090169944
-12.5 -9.980267284 -0.6279051953
-12.5 -9.822872507 1.873813146
-12.5 -9.048270525 4.257792916
-12.5 -7.705132428 6.374239897
-12.5 -5.877852523 8.090169944
-12.5 -3.681245527 9.297764859
-12.5 -1.253332336 9.921147013
-12.5 1.253332336 9.921147013
-12.5 3.681245527 9.297764859
-12.5 5.877852523 8.090169944
-12.5 7.705132428 6.374239897
-12.5 9.048270525 4.257792916
-12.5 9.822872507 1.873813146
-12.5 9.980267284 -0.6279051953
-12.5 9.510565163 -3.090169944
-12.5 8.443279255 -5.35826795
-12.5 6.845471059 -7.289686274
-12.5 4.817536741 -8.7630668
-12.5 2.486898872 -9.685831611
12.5 0 -10
12.5 2.486898872 -9.685831611
12.5 4.817536741 -8.7630668
12.5 6.845471059 -7.289686274
12.5 8.443279255 -5.35826795
12.5 9.510565163 -3.090169944
12.5 9.980267284 -0.6279051953
12.5 9.822872507 1.873813146
12.5 9.048270525 4.257792916
12.5 7.705132428 6.374239897
12.5 5.877852523 8.090169944
12.5 3.681245527 9.297764859
12.5 1.253332336 9.921147013
12.5 -1.253332336 9.921147013
12.5 -3.681245527 9.297764859
12.5 -5.877852523 8.090169944
12.5 -7.705132428 6.374239897
12.5 -9.048270525 4.257792916
12.5 -9.822872507 1.873813146
12.5 -9.980267284 -0.6279051953
12.5 -9.510565163 -3.090169944
12.5 -8.443279255 -5.35826795
12.5 -6.845471059 -7.289686274
12.5 -4.817536741 -8.7630668
12.5 -2.486898872 -9.685831611
1.07694508 7.511391508 -6.601439056
0.8185963877 9.071689547 -4.207665477
1.494970716 9.828413088 -1.844531422
0.8414666283 9.979982778 0.6324110667
1.182702778 9.397923088 3.417461285
1.443527586 8.218777606 5.696638892
1.945820002 6.874171119 7.26262841
1.489785152 5.23947282 8.517506946
1.336772993 2.980224457 9.545588624
1.275663053 0.487212137 9.988124165
1.254876553 -2.033772641 9.791004486
1.249182827 -4.416411811 8.971917672
1.248157458 -6.513962807 7.587376922
1.248156585 -8.198029651 5.726457006
1.248128226 -9.365033809 3.506585484
1.246864626 -9.942832028 1.06775056
1.238985833 -9.896569188 -1.434544634
1.223748312 -9.232259408 -3.842575468
1.204771611 -7.99436957 -6.007499911
1.187497256 -6.260158336 -7.798103462
1.169267607 5.528259127 -8.33296772
1.193329943 3.237293866 -9.461497156
1.194111071 0.7719569748 -9.970159599
1.182376962 -1.737239602 -9.847943875
1.183462342 -4.124523682 -9.109791677
-1.123281385 -7.319607746 -6.813467726
-1.099157771 -8.779285028 -4.787917544
-1.075148 -9.689250663 -2.473544336
-1.055360736 -9.999999993 0.0003754035565
-1.055448497 -9.685300731 2.488965597
-1.055793631 -8.761220831 4.820893024
-1.055745756 -7.285163474 6.850284166
-1.05500455 -5.347653821 8.450005835
-1.051604356 -3.065883371 9.518422094
-1.039420087 -0.5743841718 9.983490513
-1.001437659 1.986427759 9.800719604
-0.8944621605 4.486812429 8.936918609
-0.5714007152 6.851995786 7.283553648
-0.9821470846 8.644692608 5.026856843
-1.233107529 9.649642046 2.623815614
-1.657432456 9.988240822 0.4848146918
-0.988445825 9.830888951 -1.831289829
-1.655559614 9.148318401 -4.038349965
-1.271262706 8.073263911 -5.901051586
-1.148884296 6.355004324 -7.721005119
-1.138922015 -5.407488732 -8.411840798
-1.136603684 -3.147338354 -9.491799686
-1.13416876 -0.6934176587 -9.975929628
-1.121332431 1.812740945 -9.834326122
-1.117637614 4.20556982 -9.072661268
3.46630757 6.694847816 -7.428257718
3.396392896 8.397692761 -5.429434251
3.48339955 9.501478029 -3.117998598
3.487351987 9.983480888 -0.5745514372
3.432684051 9.806647001 1.956955442
3.592606907 8.991577392 4.376246793
3.803773479 7.684286434 6.399354811
3.816650433 5.96253766 8.02796018
3.666527862 3.895217361 9.21017273
3.591558679 1.527131314 9.882705599
3.564914387 -0.9739793827 9.952455183
3.557746812 -3.423431594 9.395749897
3.556700445 -5.656447564 8.246490221
3.556846891 -7.531306803 6.578709436
3.557037816 -8.931360513 4.497866092
3.556924824 -9.76946479 2.13484372
3.555402534 -9.993473385 -0.3612335952
3.547389479 -9.591064781 -2.830455153
3.527983434 -8.592001976 -5.116395416
3.504452647 -7.059263957 -7.082851996
3.488427323 -5.08548136 -8.610335611
3.510008913 4.581011205 -8.889000863
3.510696906 2.199883727 -9.75502494
3.50526464 -0.2944076358 -9.995665268
3.507576063 -2.760443925 -9.611448868
-3.467681736 -6.568434178 -7.540270052
-3.457510129 -8.237816922 -5.669071561
-3.426170256 -9.38288751 -3.458528876
-3.40155587 -9.946476328 -1.033251496
-3.400410327 -9.890643738 1.474844547
-3.40179858 -9.2120234 3.890838582
-3.401802927 -7.953815208 6.06109096
-3.401333732 -6.193526938 7.85112884
-3.399322969 -4.038574193 9.148219416
-3.392371831 -1.618069741 9.868224274
-3.372505927 0.927680326 9.956877483
-3.315610278 3.45447584 9.384380463
-3.206417266 5.809979849 8.139049954
-3.24385282 7.751247511 6.318082148
-3.446505279 9.121862332 4.097758851
-3.640658166 9.845110227 1.753226916
-3.602601853 9.977901472 -0.6644412829
-3.596210457 9.552498192 -2.958002417
-3.646148873 8.563460576 -5.164023911
-3.514469859 7.078728678 -7.063398637
-3.458169096 5.117842885 -8.591139866
-3.477419016 -4.50149798 -8.929530555
-3.477908579 -2.14557962 -9.767112577
-3.471812706 0.3439161367 -9.994084335
-3.461238713 2.806628558 -9.598064187
5.7849969 5.778484858 -8.161440605
5.760799417 7.657506611 -6.431375631
5.762985471 9.03177137 -4.292680505
5.782197838 9.823299666 -1.871572514
5.783333203 9.978271089 0.6588672614
5.824881071 9.500894672 3.119775701
5.930025884 8.434745802 5.371690912
5.981152855 6.861178131 7.274904443
5.946443544 4.879809383 8.728542856
5.8768487 2.610881765 9.653149559
5.841849996 0.1500180742 9.998874666
5.830475912 -2.339546329 9.722475147
5.828405349 -4.686156897 8.834021368
5.828398892 -6.73727856 7.389795505
5.828640476 -8.364031347 5.481147656
5.82879294 -9.464659186 3.228037562
5.828672723 -9.970158984 0.7719649171
5.827028766 -9.848828916 -1.732215054
5.819582871 -9.109232728 -4.125758005
5.810704669 -7.798421163 -6.259762564
5.796048585 -6.006526304 -7.99510111
5.800820005 -3.824967125 -9.239568523
5.808837382 3.549423312 -9.348881973
5.81475914 1.108924234 -9.938324157
5.806707767 -1.400334073 -9.901467794
-5.776305542 -5.709401416 -8.209916898
-5.773702925 -7.574750822 -6.528640745
-5.756664843 -8.954266396 -4.452090892
-5.733457886 -9.776404939 -2.102832963
-5.72671248 -9.992151538 0.3961157038
-5.734417103 -9.576846301 2.878196471
-5.734835162 -8.559050338 5.171330323
-5.734532169 -7.002399206 7.139075945
-5.733337008 -5.002583197 8.658762115
-5.728921788 -2.681833566 9.633678878
-5.714504027 -0.1803715428 9.998373173
-5.68942031 2.351756616 9.719528837
-5.63600284 4.746988971 8.801482586
-5.629039022 6.837889349 7.296798562
-5.705163971 8.464027445 5.325433261
-5.82282503 9.524500931 3.046946344
-5.877386853 9.981478346 0.6083502588
-5.867139061 9.830819149 -1.831664506
-5.857228253 9.090093877 -4.167756387
-5.827635987 7.789329572 -6.271072063
-5.790655818 5.999902114 -8.000073414
-5.773922696 3.837128327 -9.234524687
-5.785909139 -3.505177355 -9.365560939
-5.785736213 -1.074704725 -9.942082767
-5.788042223 1.415009858 -9.899381147
8.064245458 4.767460022 -8.790410965
8.054921883 6.81584109 -7.317397778
8.048976727 8.429435235 -5.380020597
8.051837834 9.507654425 -3.09911396
8.048142451 9.980596408 -0.6226518564
8.073780286 9.821350194 1.881775856
8.108387727 9.046211137 4.262166594
8.14758546 7.707935267 6.37085033
8.14745812 5.892825389 8.079270322
8.122609143 3.716057575 9.283906295
8.09660373 1.309692888 9.913864259
8.08635183 -1.193074827 9.928573536
8.084395173 -3.625285561 9.319726638
8.084270933 -5.829762965 8.124891616
8.084409658 -7.667560212 6.419386294
8.084505795 -9.023347104 4.31036043
8.084588543 -9.811973134 1.930073372
8.0848599 -9.983616491 -0.5721903164
8.085311769 -9.527154217 -3.038639914
8.076995592 -8.47351935 -5.310317299
8.067330872 -6.891155207 -7.246515019
8.062630621 -4.876144989 -8.730590475
8.073307378 -2.542801479 -9.671306046
8.075010235 2.429241814 -9.700452784
8.082606355 -0.05207853628 -9.99986439
-8.063455954 -4.741797579 -8.804280534
-8.060030941 -6.781887124 -7.348877944
-8.042524458 -8.391145384 -5.439547696
-8.023193928 -9.475645361 -3.19564469
-8.029246275 -9.973061013 -0.7335216666
-8.038646142 -9.840876413 1.77683748
-8.042599014 -9.086089941 4.176478132
-8.042448433 -7.761395737 6.305611486
-8.041974694 -5.947837384 8.038857534
-8.0404211 -3.758146669 9.266948452
-8.03460529 -1.328036286 9.911423693
-8.009870698 1.192949608 9.928588582
-7.9700658 3.634309659 9.316211317
-7.966162542 5.86176478 8.101833969
-7.98097109 7.70394092 6.375679908
-8.044990322 9.051239374 4.251478071
-8.096116107 9.823855116 1.868654771
-8.107958328 9.981076944 -0.6149008367
-8.103768517 9.519785846 -3.061646199
-8.088529091 8.467736115 -5.319534292
-8.070464627 6.885641443 -7.251754403
-8.061425507 4.871921388 -8.73294807
-8.069692697 2.547752056 -9.670003075
-8.067336875 -2.413355404 -9.704417329
-8.071202056 0.06682850027 -9.999776695
10.28995914 3.661935853 -9.305386924
10.28908549 5.8662633 -8.098577338
10.28511201 7.698573777 -6.38215965
10.28342562 9.045931767 -4.26275949
10.29179091 9.822509688 -1.875714113
10.30104239 9.980102393 0.6305205923
10.31564246 9.511179869 3.088277433
10.329113 8.443492321 5.357932197
10.32830444 6.84664512 7.28858358
10.32181851 4.823261033 8.759917409
10.30940872 2.500020829 9.682452988
10.30421964 0.015314581 9.999988273
10.30320318 -2.47206115 9.689629181
10.30310051 -4.804268604 8.770347951
10.30313733 -6.834543545 7.299932502
10.30315651 -8.435333877 5.370767392
10.30315228 -9.506067692 3.103977615
10.30321675 -9.979381269 0.6418329096
10.30373565 -9.825286536 -1.861113774
10.30526231 -9.053130623 -4.247449342
10.30353426 -7.712412491 -6.365429567
10.3025793 -5.888337477 -8.082541788
10.30560222 -3.691238675 -9.293802077
10.30056214 -1.267339907 -9.919367397
10.30066041 1.239771677 -9.922850709
-10.2880067 -3.654058569 -9.308483012
[...]
CELL_DATA 3775
SCALARS TALLY_TAG_0-1 double 1
LOOKUP_TABLE default
0.0003870701094 
0.0006257661364 
0.0004824491148 
0.0006080923484 
0.0009930372323 
0.0004759738423 
0.0008090553187 
0.0004833185388 
0.001147102194 
0.0007995612615 
0.002235662007 
1.760759652e-05 
5.310514828e-05 
0.001583266564 
0.0008957057103 
1.134963619e-05 
0.0009630194386 
0.002427977351 
0.002325271085 
0.0008149132836 
0.001880835265 
0.00210048549 
0.0009979649613 
0.0002162800014 
0.0001861245283 
0.0002110829847 
0.0004074723407 
0.0002181751102 
6.889425412e-05 
8.860752225e-05 
0.0001062641164 
0.0001002335562 
0.000153919992 
0.0001928358671 
0.0001834923595 
0.0001960483696 
0.001840041485 
0.00114541698 
0.001316284111 
0.001681494726 
0.001438256841 
0.0005588642867 
0.0001633103885 
0.0009685780866 
0.0009061353168 
0.000294748325 
0.0002337854438 
0.0001752883807 
8.547361092e-05 
0.0005190498687 
0.0008951602474 
0.0008357713164 
0.0002006923278 
0.0002136234633 
0.0006819169242 
0.0004216076462 
0.0005179227134 
0.0006575390705 
0.0007575213224 
0.000526757793 
0.00117979317 
0.0006693840797 
0.0004514296092 
0.0003330346383 
0.0005502616407 
1.397030705e-05 
0.0004419678681 
0.0007795205409 
0.001021179568 
0.0007258823836 
0.001122172519 
0.001537863455 
0.0007150234859 
0.00116616303 
0.0007691099406 
0.0004818163918 
0.0003760188673 
0.0005064437431 
0.0001001354489 
0.0001126390188 
0.0005704160596 
0.0002920050593 
0.0001687850265 
0.000354033196 
3.840598034e-05 
0.0001551146222 
5.605004466e-05 
6.661972722e-05 
0.0001043242085 
0.0002177100768 
0.0002163394545 
0.0003603810822 
0.000261367097 
0.0003256042486 
0.0005222126528 
0.000701062267 
0.0007915877444 
0.0001189643522 
0.0001392436777 
0.0001386068317 
0.0001475544392 
7.971072751e-05 
6.379233103e-05 
0.0003301313068 
0.0003993890578 
0.0004368264169 
0.0008894001192 
0.0004707376737 
0.0004543145404 
0.0004946111935 
0.0003396466359 
0.0002141396805 
6.564861522e-05 
0.0001047550312 
6.34322768e-05 
0.000131637429 
0.0001432500658 
0.0002831555461 
8.145679158e-06 
0.000126227515 
0.0003726658757 
0.0002193598044 
0.0005630484204 
0.00021953182 
0.001091599909 
0.0003895153846 
0.000639421624 
1.369917442e-05 
0.00135960562 
0.0004479171701 
0.001136158614 
0.001182231079 
0.001043186383 
0.00053238784 
0.001878777519 
0.0004811070802 
0.0003181805314 
0.0002246010363 
8.835978212e-05 
0.0002492780107 
0.000191447098 
0.0002030158601 
3.762947248e-05 
2.466533409e-05 
0.0001468257074 
2.590137778e-05 
4.755711177e-05 
2.632745842e-05 
5.453119235e-05 
4.400756348e-05 
0.0001785450896 
0.000103838453 
8.863217541e-05 
9.271049504e-05 
0.0001194410423 
0.0001473140559 
0.0001275639192 
0.0004827647039 
6.789507439e-06 
0.0001546322014 
0.0002098129664 
0.0001861516804 
0.000138855341 
0.0001349337619 
0.0003835297936 
0.0001514480822 
0.0001193752756 
8.533279297e-05 
0.0001384447252 
0.0002235670907 
0.0003802614163 
6.07226312e-06 
0.0003430989281 
0.0002703659583 
7.521138535e-05 
0.0001239129975 
9.167298209e-05 
0.0001229988703 
0.0001667307318 
0.0002174184394 
0.0001703683452 
0.0001900902701 
7.326872146e-06 
0.0002602113417 
0.000137527076 
0.0002638944468 
0.0004212176373 
0.0002318520574 
0.0006451191247 
9.899386792e-05 
0.001112493636 
0.0008760889217 
0.0006187913749 
0.0005645455421 
0.0003511257777 
0.0005978530268 
0.0007301691211 
0.002400934137 
0.0003517375042 
0.0008705045598 
0.0009599378824 
0.0007883428154 
5.890223595e-05 
0.0001514665739 
9.544764684e-05 
7.011162525e-05 
4.673679423e-05 
1.988445892e-05 
0.0002530376056 
7.647627599e-05 
0.0001147477584 
4.841844975e-05 
5.825181279e-05 
9.599137582e-05 
5.131616252e-05 
3.628750216e-05 
0.003720343133 
0.001002965313 
0.0006016205094 
0.0007876611749 
0.0006973399727 
0.001142956375 
0.002283483015 
0.0005251482779 
0.0008812194585 
0.001414614854 
0.001020234422 
0.001096100697 
0.000983377657 
0.0006672359546 
0.001381062815 
2.0858401e-05 
2.26599031e-05 
2.709243792e-05 
8.269183528e-05 
8.988732008e-05 
0.0001242456765 
0.0001614003334 
8.802576803e-05 
4.754064093e-05 
0.0001907948066 
0.0002647370558 
0.0004332053979 
0.0008142904939 
0.0002614734641 
5.674640169e-05 
5.981516081e-05 
0.0001672075161 
0.0001768090613 
3.51551563e-05 
6.26194666e-05 
7.30900636e-05 
6.050798924e-05 
8.917114543e-05 
7.274763381e-05 
6.342089622e-05 
6.822278364e-05 
0.0003824452275 
0.0001915970314 
4.259838717e-05 
4.104990915e-05 
0.0001338779935 
5.726270053e-05 
0.0002153767867 
0.0002352399853 
7.301393488e-05 
9.496010006e-05 
0.0001282306592 
0.0001316722914 
9.465097226e-05 
7.897936847e-05 
9.061560578e-05 
0.0001001408174 
9.033929798e-05 
7.41887067e-05 
7.731010237e-05 
0.0002368846567 
0.000194587713 
0.001096621836 
0.0005118471603 
0.000403257392 
0.0009607713529 
0.0007266659506 
0.0006952449851 
0.001281543443 
7.1118666e-05 
0.0002739216651 
0.0005105579202 
0.001327234319 
0.0003638027107 
0.0001738201624 
1.478778806e-05 
0.0001322957698 
0.0003429919636 
0.000240315816 
0.0002974023222 
0.0001817488517 
0.0001446465042 
8.049969805e-05 
0.0003458798841 
0.0002180774616 
0.0002246090298 
0.0003508810644 
1.031254353e-05 
0.0003552875391 
0.0001746211488 
0.000496622576 
0.0002312722038 
0.000205274786 
0.002370252818 
0.0003714425373 
0.0003272673122 
0.0002312126647 
0.0003474259715 
0.0002902189122 
1.199946023e-05 
0.0005542290215 
0.000804353201 
0.000411112573 
2.588504339e-05 
2.228582028e-05 
9.309630015e-05 
3.314959942e-05 
3.815221752e-05 
0.0002305257644 
0.0002134130827 
6.817440629e-05 
5.157636361e-05 
5.977447702e-05 
3.80247696e-05 
0.0004138224085 
0.0002320130529 
0.0003922711198 
0.0001881296845 
0.0002406089471 
0.0002942067125 
0.0005030565816 
0.001245584026 
0.0004282228835 
0.0001543190148 
0.0001930253752 
0.0001121502251 
0.0001030104033 
0.0001061488935 
0.000125995809 
0.0001105157872 
0.0001055363756 
8.407181448e-05 
8.620304869e-05 
7.289982111e-05 
0.0002678667783 
0.0003210647708 
0.0001483697475 
5.093325833e-05 
0.0002297458697 
9.541435748e-05 
0.0001027667448 
0.0002628550529 
0.0001524052715 
9.923429238e-05 
5.469743937e-05 
0.0001903399726 
0.0001050443334 
4.206940352e-05 
0.0002777288031 
0.000108005845 
0.000108529815 
0.0003343915312 
0.0001364304497 
0.0003814490795 
0.001086294721 
0.0009337913702 
0.0007988030474 
0.0002496014878 
7.56616665e-05 
0.001010083188 
0.0001397661761 
0.0006440474693 
0.0006119838221 
0.000986616151 
0.0005068126024 
0.0007997566903 
0.0003689775907 
0.0003834586238 
0.0003064259869 
0.0001402272466 
0.0003911690398 
0.0009184263038 
0.0003184433694 
9.15775047e-05 
6.21406584e-05 
0.0001450222165 
0.0002066627185 
6.172306346e-05 
4.664708364e-05 
0.0003243704167 
0.0003095711679 
8.146311672e-05 
6.490287992e-05 
6.52737008e-05 
6.891648006e-05 
4.742167844e-05 
0.0001275651918 
0.0002247018058 
0.0003982332153 
0.0003781071615 
0.0001817447894 
0.0004910919618 
6.277593109e-05 
0.000220904201 
0.0001327767152 
0.000165844024 
0.0001267525788 
0.000631681679 
6.518224096e-05 
0.0006589401279 
0.0004141384926 
0.0002196520473 
8.858916746e-05 
0.0003660916592 
0.0002454814111 
0.0001484804363 
0.0001865891155 
0.0004790765315 
0.000258290441 
0.0004681807379 
0.0002718522181 
0.0002736274172 
0.0005678024269 
0.0001654405522 
0.0002548287776 
0.0001567797357 
0.0002309633857 
5.615003443e-05 
0.0002397196982 
0.0001970486199 
0.0002805257489 
7.680782231e-05 
0.0001661217047 
0.002038806617 
4.608926487e-05 
0.0001257219532 
0.0003064349727 
0.0004218685859 
0.0008464704654 
0.0005124288016 
0.0002631401723 
0.0002955940869 
0.0002634405367 
0.0002132094136 
0.0002428866426 
0.0005557017817 
0.0002693662509 
0.0003548680758 
0.0003138939255 
0.0001861724041 
0.0003120915828 
0.0001804224725 
0.0001598732291 
6.302063214e-05 
0.0002450814553 
0.0004033416769 
0.000198958162 
0.0003638354248 
0.0002764599862 
0.0002207918544 
0.0003367208214 
0.0003980130313 
0.0006469799554 
0.0001456406138 
0.0003220255351 
0.0005701416547 
0.0006581845665 
0.000274933973 
0.0001857595502 
0.0001271442537 
0.0001454399342 
0.0001535116471 
0.0001591648846 
0.0001677754987 
0.0001438116375 
0.0004627376787 
0.0002169019395 
0.0005097286714 
9.882879309e-05 
6.405841581e-05 
8.486310351e-05 
0.0001655883574 
0.0003218469052 
4.857022292e-05 
9.773078908e-05 
0.0001394919104 
0.0003949086489 
0.0004905534422 
5.258259379e-05 
0.000231190383 
0.0001165812478 
0.000975648427 
0.0001420695872 
0.0001956845549 
0.0001422498988 
0.0003331775101 
0.0002569801804 
0.0001588925504 
0.0001527594291 
0.0002643531243 
0.0001375335108 
1.383264057e-05 
0.0002481326409 
0.0004087306958 
0.0001744979019 
0.0005511263143 
0.0001087406492 
3.882834283e-05 
6.297057711e-05 
0.0003368766114 
5.68101769e-05 
6.802032292e-05 
4.58284892e-05 
3.75636808e-05 
5.235247971e-05 
5.963107029e-05 
0.0001940988267 
0.000188558116 
7.188028241e-05 
0.0001118574532 
0.0001979585685 
0.000607168165 
5.192167801e-05 
0.000104369229 
5.444694426e-05 
4.74930577e-05 
7.965889477e-05 
4.643399673e-05 
0.0002459263085 
0.000232805682 
0.0001538115009 
0.0003445106662 
0.0004464072369 
0.0001432320254 
7.110141518e-05 
0.0002925824078 
0.0002229901545 
0.0001422881767 
0.0001000799706 
0.0001415761449 
9.980276904e-05 
6.80737131e-05 
0.0004792590072 
0.0003966637653 
0.0001934295493 
0.001203569563 
0.0001461797751 
0.000308161234 
0.0003978976914 
0.0002460896437 
0.0002176270177 
0.00012459004 
0.0002252004807 
8.614222059e-05 
0.0005689069454 
0.000316296097 
0.0001300403268 
0.0001197863304 
0.0001678209104 
0.0004219331101 
0.000519218622 
0.0003526193558 
0.0003652230104 
0.0001477720376 
0.0002338154116 
6.976433975e-05 
0.000546068657 
0.0004638448233 
0.0006196569256 
5.340179026e-05 
0.0002560809796 
0.0002567537692 
0.0006576014501 
6.545160299e-05 
0.0002357009935 
5.158827481e-05 
0.0002986519172 
0.001435060579 
0.0003307871295 
0.0001056445646 
0.0001398568105 
0.0003456373599 
0.0002057267221 
0.0002480081407 
0.0001292779491 
0.000140204875 
0.0001016167408 
0.0001796420472 
0.0002397648199 
0.000162674043 
9.078142525e-05 
0.0001244760861 
9.430863582e-05 
0.0001529008186 
0.0003707372592 
0.000270665312 
0.0002192175036 
6.247110881e-05 
4.997439652e-05 
0.0001909822065 
0.0006495471983 
0.0001199421787 
0.000107674831 
0.0001108122835 
0.0001996935369 
0.000226604129 
2.42403365e-05 
0.0001230429227 
0.0002061450064 
0.0001197808617 
0.0001154669328 
7.093577522e-05 
0.0001342048142 
0.0001535045411 
0.000184285373 
7.761886913e-05 
7.849459163e-05 
0.0001459421773 
0.0001702076607 
0.0001958635866 
0.0001207241612 
0.000351938365 
0.0002062228336 
0.0002518382641 
0.0002439227834 
0.000162920456 
0.0007237133549 
6.561306111e-05 
0.0001797643105 
0.0001179957785 
0.0004731836986 
0.0001396003607 
0.001075474431 
0.000213756028 
0.0001130719282 
0.000121090293 
0.0001423110259 
0.0003600787666 
0.0002190452004 
0.0001403301943 
0.0002486287043 
0.0002058108151 
0.0001374223839 
0.0001384810148 
0.0001856414389 
0.0002186744078 
0.0002539673893 
3.808034932e-05 
2.080003435e-05 
1.50953174e-05 
5.853032588e-05 
3.925156868e-05 
7.159497145e-05 
3.91922953e-05 
2.810567966e-05 
7.234870464e-05 
2.318188928e-05 
7.172575877e-06 
1.524257818e-05 
0.00014943191 
0.000227223932 
0.0007384212056 
0.0002012574173 
0.0002119465509 
0.0001305798757 
0.0001726589376 
0.001385786179 
0.0004587670694 
0.0001558532202 
7.915550871e-05 
0.0002144601548 
8.499200811e-05 
0.0003774626188 
0.0001236073973 
0.0001217842685 
9.682832569e-05 
9.188157964e-05 
3.814157895e-05 
0.0004348312563 
0.000104514704 
0.0001413399923 
0.0001102106023 
0.0001151679522 
0.0001007428628 
0.0001808853307 
0.0001350353571 
0.0001502738783 
0.0002590255977 
0.0001892127219 
0.0001663184726 
0.0001071099127 
0.0001762966595 
0.0005291032605 
9.820935857e-05 
0.0005327539461 
0.0001940148276 
0.0001162586563 
0.001209722512 
0.0002104897214 
0.0001597404826 
0.0001249483061 
0.0001259093453 
0.0001218828348 
0.0003009538301 
9.612801515e-05 
0.0001621109272 
0.0001423855736 
9.448158669e-05 
8.304157797e-05 
0.0002216089081 
0.0001312915952 
0.0001333705009 
2.514950914e-05 
1.307258549e-05 
2.020922658e-05 
2.209254787e-05 
0.0003071638767 
0.000225049997 
0.0001482631691 
0.0001527985372 
0.0002872314685 
4.132532806e-05 
0.0001287665288 
4.924686728e-05 
3.940024084e-05 
8.204501493e-05 
0.0002168384987 
0.0001844168458 
7.586916319e-05 
4.83190524e-05 
9.800094415e-05 
9.955646066e-05 
7.525661082e-05 
7.686369426e-05 
7.848554955e-05 
0.0001525074392 
0.0001471470118 
0.0001188694888 
0.0002057833369 
0.0004709637359 
0.0001957295666 
0.0001385536786 
0.0001121007901 
0.0002250575565 
0.0001814589596 
0.0002681847677 
0.0004846814224 
0.0002765536295 
0.000154812096 
0.0001053423334 
0.0002060439945 
9.214513772e-05 
0.0001043376837 
0.0001977865671 
0.0002029219004 
0.000144132888 
4.474636781e-05 
0.0001483894958 
0.0001016342162 
3.098786523e-05 
1.678908447e-05 
1.75515745e-05 
1.734847198e-05 
2.463544788e-05 
8.454348344e-05 
5.687742098e-05 
9.231460682e-05 
2.339615115e-05 
5.303684158e-05 
0.002919486325 
0.0001869385096 
0.0001976509774 
0.0001389856526 
0.0003821188569 
0.0002601750909 
0.0002202187271 
0.000173422145 
0.0001662904769 
0.0001830970662 
0.0002170021237 
0.0002472458971 
8.278531317e-05 
6.460909215e-05 
5.258716493e-05 
0.0009114293441 
8.424941514e-05 
0.0001475131815 
0.0006133701425 
0.0001305601657 
0.0001278704493 
0.0002669576856 
0.000114820152 
0.0002541712503 
0.0001687382623 
0.0001372715762 
0.0002339250137 
0.0001442186629 
0.0008954754745 
3.042181271e-05 
1.471859753e-05 
4.003900236e-05 
2.274040948e-05 
8.046135551e-05 
2.66660118e-05 
3.417925905e-05 
1.009388166e-05 
3.174497892e-05 
0.0001131860988 
0.0001029213301 
0.0001217282517 
0.0001568912911 
0.0001194357342 
0.0001664820928 
0.0001045545439 
0.0007436518871 
9.860268637e-05 
0.0003116742352 
0.0003544670795 
9.732425726e-05 
0.0001013111537 
0.0001927515913 
0.0003851749924 
0.000108221707 
0.0002093138965 
0.0001922229147 
0.000383821323 
0.0003383926876 
0.0001081045844 
0.0001660526329 
0.0001518411664 
2.01017366e-05 
2.843156752e-05 
2.601173344e-05 
4.863872702e-05 
2.362786228e-05 
6.259412385e-05 
0.0001422243768 
0.0009064320983 
0.0002232628378 
0.0002158793067 
0.0001247191398 
6.202365016e-05 
6.768013808e-05 
8.299315054e-05 
5.493480677e-05 
7.73999628e-05 
6.725457661e-05 
6.904953009e-05 
0.0001023323728 
0.0001057008736 
0.0001602294872 
9.630144992e-05 
1.495498784e-05 
7.379695743e-05 
0.0003263146866 
0.0002595547345 
0.0001608126963 
0.0001632403893 
0.0001593008 
0.0001678881188 
2.88981531e-05 
0.0002125458825 
0.0002522699418 
8.485066693e-05 
0.0001594399648 
0.0004093094399 
1.206931624e-05 
0.0002048154117 
0.000298605471 
3.823577031e-05 
0.0002060375224 
4.647751703e-05 
0.0003064956695 
0.0002434753338 
0.0001899317783 
0.0002100003509 
0.0001787663859 
0.0006724430271 
0.0001730296435 
0.0001429364609 
9.79878728e-05 
7.737030789e-05 
0.0001476487761 
0.000115181236 
0.0001011256634 
9.278973699e-05 
6.346807036e-05 
0.0005249430056 
0.001378831756 
4.716898772e-05 
0.0001225367785 
8.679149579e-05 
5.142627954e-05 
4.835363801e-05 
3.101625385e-05 
6.306011755e-05 
7.417062707e-05 
7.272024565e-05 
7.633738541e-05 
7.881886835e-05 
0.0001131044604 
0.0001154836035 
0.0001240005761 
0.0001307579521 
0.0001104146462 
0.0001468614205 
0.0003646016077 
5.459707934e-05 
4.502707295e-05 
5.696758517e-05 
5.588166132e-05 
0.0005702384412 
0.0001043118131 
3.999771383e-05 
0.0002119482294 
2.555107531e-05 
0.0002528319362 
0.0001153461502 
6.36575749e-05 
2.407671215e-05 
2.163663088e-05 
9.720068214e-05 
0.0002976688247 
4.039969958e-05 
6.693147009e-05 
2.514482162e-05 
0.0001097035312 
0.0001205025086 
0.0001875490533 
0.000157075085 
1.168450831e-05 
0.0001453973246 
0.001873607468 
0.0006487051993 
0.0001108491171 
0.0001210564085 
0.0002029362014 
0.0003089938499 
0.0001156269199 
2.304997417e-05 
4.616341298e-05 
2.47614424e-05 
3.283733212e-05 
2.568703552e-05 
2.060098741e-05 
2.568298814e-05 
1.897433005e-05 
3.171581284e-05 
2.862015022e-05 
4.674649968e-05 
3.958412193e-05 
0.0001373457493 
0.0001395212412 
0.0001206036089 
8.485886828e-05 
0.0001479526958 
3.384595746e-05 
2.075563586e-05 
5.214224677e-05 
1.479211621e-05 
2.136229138e-05 
0.0001021229782 
0.0001462189153 
0.0001131932861 
0.0001530151681 
0.0001441464917 
0.0001214587218 
0.0001004499766 
0.0008702094944 
0.000665711026 
0.000192351128 
0.0004252580079 
0.0001283416333 
0.0001549383794 
0.000182544953 
0.0002032003617 
0.000349953264 
8.500348767e-05 
2.692441469e-05 
7.094415692e-05 
0.0001761839401 
9.964990396e-05 
0.0001180988369 
0.000121369866 
7.888523844e-05 
4.198142149e-05 
0.000121662761 
0.000132101319 
2.921595558e-05 
2.859449365e-05 
2.424819467e-05 
6.16725858e-05 
1.953375346e-05 
2.896628567e-05 
0.0002014481998 
1.49614611e-05 
9.70944744e-06 
1.35157346e-05 
1.620648222e-05 
5.366511215e-05 
3.811272846e-05 
0.0002164651106 
0.0002039991476 
7.402167378e-05 
0.0001177923266 
8.069686613e-05 
3.655712761e-05 
0.000102985039 
5.258086539e-05 
9.618086561e-06 
6.610148733e-05 
1.857780304e-05 
6.040879185e-05 
0.0001209740405 
0.0004498747571 
0.0001829358959 
0.0001106559328 
0.0001213870105 
0.0001267580803 
8.36388906e-05 
0.0001752737077 
0.0001231254793 
5.982969244e-05 
8.479926646e-05 
8.581801513e-05 
3.674924243e-05 
0.0005412146768 
0.0001250846383 
0.0001511488863 
0.0001341115896 
0.0001665964488 
9.159229306e-05 
0.0001481288519 
0.0001711934524 
0.0001161913271 
0.0001207390322 
0.0001181875003 
0.0001320524095 
0.000104883926 
0.0001653754988 
0.0003030621408 
0.0005622650116 
0.0002517299848 
6.604498766e-05 
0.0001071974996 
6.809277402e-05 
4.492702586e-05 
5.400378533e-05 
0.0002512879178 
0.000123656081 
2.468316003e-05 
5.929466023e-05 
2.740711881e-05 
1.623772702e-05 
1.782891866e-05 
2.040615987e-05 
1.919241677e-05 
2.83379263e-05 
1.154138282e-05 
8.199501117e-06 
0.000133964687 
0.0001340308005 
3.293189276e-05 
8.803335952e-05 
2.948062244e-05 
0.000182058155 
0.0003018497427 
0.0001203314582 
0.0001273185182 
0.0002524931043 
8.961132938e-05 
0.0001155645985 
0.0001099662748 
0.0003847882629 
0.0001231739001 
0.0001207092317 
0.0001410959983 
0.0003251138021 
9.285093842e-05 
8.814277515e-05 
0.000219304247 
0.0002055823526 
0.0001502240063 
0.0001628061448 
0.0001233619422 
0.0002205372351 
0.0001915866857 
0.0001902980479 
0.0001817568564 
0.0002092172484 
0.0001197435936 
0.0001575173431 
0.0001472862878 
0.0001396030475 
0.0001362992234 
0.000124555953 
8.633439035e-05 
8.157840672e-05 
8.808876919e-05 
0.0001381473366 
5.655752087e-05 
6.703367802e-05 
2.87215128e-05 
0.0001787998136 
0.0003212300812 
1.585875729e-05 
0.0001226429484 
0.0001453403429 
0.0001323183341 
0.0001646953017 
0.0001175795583 
0.0001421938251 
0.0001204326617 
0.0002024872794 
0.0002285571465 
0.000126823122 
0.0001396002028 
0.0001356907929 
0.0002923555042 
8.457590749e-05 
0.0002266683856 
0.0001582995485 
0.000174987071 
0.0004306333083 
0.0001147835723 
5.280649988e-05 
0.0001743201478 
7.33904441e-05 
7.383918034e-05 
6.348046151e-05 
7.09288562e-05 
0.0002237807635 
1.458519076e-05 
6.387126292e-05 
0.0008270844721 
0.0001456930517 
0.00015645908 
5.560444859e-05 
3.684927772e-05 
6.685425223e-05 
2.741020079e-05 
5.608973131e-05 
5.077632641e-05 
8.413421709e-05 
4.13112368e-05 
1.163704323e-05 
2.786605283e-05 
1.632660862e-05 
2.753870912e-05 
6.46408096e-05 
4.844338646e-05 
9.319993166e-05 
1.686747969e-05 
3.038462657e-05 
5.008482519e-05 
0.0001035413508 
3.862991728e-05 
5.288779195e-05 
6.269336862e-05 
7.831150769e-05 
8.12866349e-05 
8.960873574e-05 
6.041767572e-05 
9.859858895e-05 
0.0002339418072 
0.0001266835764 
0.0002029983983 
0.0002259992271 
0.0002531083359 
0.0001947096443 
0.0001315734907 
0.0001315802721 
0.0001005812653 
0.0001131519748 
0.001311027487 
7.844247556e-05 
0.0001380855943 