# vtk DataFile Version 3.0
MOAB 4.9.0
ASCII
DATASET UNSTRUCTURED_GRID
POINTS 1600 double
0 0 10
0 0 -10
2.050261253 0 9.787565008
2.050261253 0 -9.787565008
1.025130627 1.77557833 9.787565008
1.025130627 1.77557833 -9.787565008
-1.025130626 1.77557833 9.787565008
-1.025130626 1.77557833 -9.787565008
-2.050261253 1.209230198e-09 9.787565008
-2.050261253 1.209230198e-09 -9.787565008
-1.025130628 -1.775578329 9.787565008
-1.025130628 -1.775578329 -9.787565008
1.025130625 -1.775578331 9.787565008
1.025130625 -1.775578331 -9.787565008
-0.7214991118 -9.933564339 -0.8965146696
1.234497383 -9.869380282 -1.035059931
-9.024472148 -4.264807667 -0.6085375939
-8.114379616 -5.744282648 -1.07706096
-5.599445918 -8.280594001 -0.2792282377
-8.215979595 5.666168947 -0.626265722
-9.043439004 4.120922802 -1.110948351
-9.97418449 0.6260276129 -0.3517572912
0.8376025335 9.946015179 -0.6125390202
-0.9332101592 9.894691219 -1.106437742
-4.447474927 8.94949083 -0.3557817462
8.917376051 4.426763496 -0.9403027822
8.025972348 5.839530672 -1.218051476
8.79656642 -4.68530038 -0.8175448414
9.544334436 -2.796548803 -1.041630912
6.781102708 7.335393465 -0.4567808856
8.32890478 5.480353031 0.7714115791
9.517626497 3.031353268 0.4750612967
-2.718356223 9.620097102 -0.2535176337
-0.7973540664 9.940057021 0.7479925912
0.9408241141 9.879462983 1.229252273
2.731248556 9.611068208 0.4094499047
4.193120285 9.055869673 0.6395050796
-9.690598407 2.455494016 -0.250702322
-9.004653496 4.283948754 0.7509983245
-8.075044673 5.768093897 1.233996078
-6.96612461 7.164254018 0.3828475836
-5.522504685 8.321966169 0.4968109237
-7.010167043 -7.128661477 -0.1993579137
-8.22412547 -5.636419079 0.7710643501
-9.036461046 -4.098658888 1.242323266
-9.689226636 -2.442717383 0.3898961115
-9.968421332 -0.6159994008 0.501119627
2.721847548 -9.622445702 -0.009199826535
0.8354490365 -9.937195226 0.7444299474
-0.9296853101 -9.889869238 1.151595275
-2.751539606 -9.606319682 0.384255084
-4.489800891 -8.918458589 0.5502584336
9.932267459 -1.16130293 0.03792922159
9.438009805 -3.203494044 0.8133860298
8.569355255 -5.004787183 1.232175216
7.459175384 -6.659585605 0.1030638722
5.811877057 -8.13733876 0.07617725377
-4.280653355 -8.971540638 -1.089708879
-9.885212041 -0.9250481341 -1.19451616
-5.747091945 8.095180295 -1.199579165
4.609418624 8.828701285 -0.8984951721
4.405143879 -8.917743606 -1.033710011
9.913815316 0.9104295171 -0.9420105993
5.437744264 8.324942179 1.061261064
-4.129370851 9.008628511 1.338995418
-9.865180734 0.9351580259 1.343014722
-5.763395284 -8.054789024 1.379727719
9.896393427 0.6830509952 1.262869146
4.307384674 -8.953306968 1.133460011
-2.634722576 -9.456699446 -1.905012478
-1.092086337 -9.527974152 -2.832852977
0.673173858 -9.593912054 -2.739286123
2.644886958 -9.39711635 -2.16766632
-9.398256829 -2.750812759 -2.026276819
-8.438285537 -4.643239148 -2.689919592
-7.209747497 -6.460538325 -2.506189455
-5.821850431 -7.901082276 -1.918060591
-7.087363344 6.754400959 -2.036503993
-8.247217908 4.962604241 -2.712186558
-9.204901611 2.952975307 -2.559242692
-9.746139978 0.9736764424 -2.016112526
2.460089913 9.492243243 -1.960937488
0.2292592723 9.628209267 -2.691658687
-2.028151993 9.452421697 -2.557014578
-4.027980977 8.92756099 -2.018421171
9.36621244 2.850555418 -2.036761729
8.362839524 4.703440514 -2.817900359
7.114699083 6.495048862 -2.682423763
5.755569843 7.857480325 -2.265704905
6.118954309 -7.698677448 -1.813494891
7.650065134 -5.873399186 -2.641909434
8.937583954 -3.412536539 -2.911045764
9.708369276 -1.147913571 -2.104723364
6.852360306 7.038489514 1.87211741
7.771923176 5.640639366 2.789336425
8.773009951 4.011278922 2.635135254
9.427436121 2.197679773 2.508715169
-2.30378695 9.48800501 2.161093847
-0.1965865448 9.593033719 2.816923464
1.966212653 9.437747465 2.657617466
3.848532428 8.989205478 2.093557502
-9.363622276 2.761451534 2.167247863
-8.387728974 4.652410042 2.828618648
-7.131113729 6.476605835 2.683429493
-5.695854305 7.931407358 2.15639075
-7.080567644 -6.714175386 2.187558165
-8.22500603 -4.930243863 2.835836958
-9.174934525 -2.932872977 2.686788521
-9.716491723 -0.9616798601 2.159851949
2.365863767 -9.470564503 2.170506079
0.2062916104 -9.596092543 2.805788959
-2.020814403 -9.423073356 2.668707119
-4.027375854 -8.892338377 2.169461204
9.653481405 -1.461427885 2.162065057
8.811289851 -3.657066808 2.997838141
7.469044902 -6.015762552 2.832661145
5.986578437 -7.762536864 1.975828951
-4.229296078 -8.532735652 -3.050487991
-9.423420935 -0.8618064759 -3.233639975
-5.459177324 7.72734482 -3.238136034
4.059983607 8.560169297 -3.200005426
4.264031652 -8.477171088 -3.155250294
9.434612494 0.8844725582 -3.194651058
5.232977599 7.934781116 3.10728082
-3.943135965 8.5550287 3.356063574
-9.378214845 0.8703304372 3.360299281
-5.441193545 -7.682695803 3.37188345
9.395996908 0.4647357606 3.391056292
4.048077873 -8.548292465 3.246499879
-2.402757072 -8.864273269 -3.956187289
-0.3265087072 -8.924693392 -4.499248819
2.04630847 -8.737865818 -4.411612244
-8.526677485 -2.902708024 -4.343967909
-7.15501263 -5.246520875 -4.613004767
-5.756369873 -7.174016685 -3.923989104
-6.777830982 5.923367065 -4.355999287
-8.112794942 3.54792508 -4.64701903
-9.066355269 1.305107024 -4.012218563
1.797159859 8.831813725 -4.332353029
-0.9572982268 8.806500199 -4.639949821
-3.398105062 8.506279983 -4.011992377
8.501572036 2.929061578 -4.375370977
7.097378921 5.245669424 -4.702144696
5.658821797 7.160626491 -4.086950467
5.826732862 -7.139424765 -3.883014058
6.72568217 -5.780059863 -4.621266854
7.747880081 -4.376296866 -4.562716296
8.373764128 -2.712427136 -4.745820621
9.067139687 -1.197592512 -4.043853369
6.490397247 6.493797476 3.962996078
7.605768855 4.684160754 4.495655475
8.558294605 2.512952074 4.521135402
-1.7402979 8.785646566 4.447895866
0.9483217892 8.769741163 4.710873138
3.29535548 8.535823049 4.034892457
-8.470200395 2.898633007 4.45574146
-7.087131955 5.224408046 4.741109703
-5.635318357 7.159599941 4.121081861
-6.744177661 -5.884080177 4.46023185
-8.068096866 -3.523516887 4.742429936
-9.017659445 -1.297054868 4.123040965
1.775583871 -8.793633377 4.418066765
-0.9519032682 -8.763053992 4.722580323
-3.374458378 -8.463142082 4.121681302
8.985931155 -1.503707478 4.122123858
8.255105484 -2.946042212 4.813945235
7.593286025 -4.543463813 4.658212525
6.540884039 -5.898745028 4.735149742
5.626883603 -7.229076302 4.009817545
-3.902817768 -7.74528204 -4.977812731
-8.582571296 -0.5511276435 -5.102521757
-4.767172736 7.156450555 -5.104829044
3.835655694 7.694662153 -5.106850277
3.98945704 -7.633752092 -5.080360373
8.57674541 0.6188665201 -5.104551146
4.743918691 7.222844594 5.032469715
-3.79267574 7.659478937 5.191145648
-8.526846863 0.5510755782 5.195112923
-4.734241526 -7.113720305 5.194414364
8.522237668 0.3103395373 5.222562064
3.799318422 -7.703547643 5.120598914
-1.86568477 -7.951308409 -5.770261252
0.3868811444 -7.769349714 -6.283910248
2.358324806 -7.586253264 -6.073472279
-7.779507657 -1.869503355 -5.998684675
-7.123648725 -3.470762039 -6.099790137
-6.059618244 -4.813514977 -6.33333248
-5.26168056 -6.274036279 -5.740312401
-5.503979667 5.801824899 -6.003751799
-6.556247443 4.432683535 -6.112850084
-7.171416583 2.851092357 -6.359406935
-8.023577907 1.425953487 -5.795589204
2.291923289 7.667013914 -5.996998022
0.5817956061 7.899598494 -6.103921485
-1.110815393 7.637899893 -6.358346828
-2.772544772 7.664016035 -5.794467509
7.761678144 1.882131033 -6.017801523
7.102898014 3.457783844 -6.131278064
6.036259958 4.779973299 -6.380863654
5.236995126 6.219447003 -5.821714613
5.296473915 -6.245613589 -5.739309624
6.378448299 -4.685452465 -6.112440797
7.280021374 -3.03436995 -6.147673365
8.034165168 -1.261714844 -5.818957441
5.963892533 5.557867376 5.791553858
6.911038234 3.518092656 6.313523153
7.700861778 1.714271279 6.144754011
-2.266922582 7.628257642 6.05563765
-0.5649620095 7.854865118 6.16294669
1.124756708 7.609178402 6.390252451
2.784650981 7.650994007 5.805859938
-7.734380168 1.85347638 6.061682004
-7.07789185 3.438301009 6.17102367
-6.024043565 4.763337438 6.404804102
-5.2238651 6.199916664 5.854252025
-5.470447975 -5.772148311 6.062714147
-6.51646412 -4.41006225 6.171470353
-7.137264994 -2.835194641 6.404773201
-7.981333814 -1.423024203 5.854341352
2.279731809 -7.637112224 6.03964732
0.5841190691 -7.859142777 6.155703024
-1.096627877 -7.60018821 6.405821296
-2.750983323 -7.62775101 5.852307689
7.957908687 -1.484566597 5.870924233
7.169925084 -3.194903798 6.195543883
6.234332166 -4.797918401 6.173579307
5.120711431 -6.319541795 5.817362456
-3.364143314 -6.642113408 -6.675692416
-7.373098726 -0.2488448012 -6.750962261
-3.89762972 6.263707724 -6.750884987
3.477656352 6.500210535 -6.756712907
3.597812481 -6.440929268 -6.750568533
7.357610446 0.2685050528 -6.767087524
4.065639257 6.20283328 6.707863798
-3.457518742 6.472065558 6.793962876
-7.334027943 0.2408882949 6.79367404
-3.870332599 -6.236309514 6.791831066
7.312116896 0.08860334669 6.820930724
3.460074916 -6.488865039 6.77661509
-1.428148862 -6.662091101 -7.319626561
0.1654849342 -6.342203611 -7.729752136
1.765681028 -6.496376888 -7.39455596
-6.53848073 -1.889886236 -7.326431584
-5.601390822 -3.49338356 -7.511370858
-4.544528799 -5.095101459 -7.306654441
-4.893396442 4.724382667 -7.330407879
-5.799847943 3.12356014 -7.523638474
-6.643787059 1.437984582 -7.334322999
1.650565957 6.598564912 -7.330386969
-0.1916661397 6.584896122 -7.523457127
-2.073212327 6.475334636 -7.332927928
6.526393522 1.8747079 -7.34109378
5.593415108 3.456843638 -7.534184727
4.561744295 5.028195358 -7.342189076
4.753758876 -4.955812133 -7.269229852
5.785146399 -3.281015333 -7.467731887
6.658673313 -1.511485739 -7.305989363
5.050829185 4.54920831 7.334427605
5.570827377 3.018377971 7.736619208
6.4846596 1.71265559 7.417277175
-1.633597861 6.568337378 7.361270415
0.2154626696 6.562891175 7.542017983
2.125025186 6.449619071 7.340754852
-6.505536149 1.866039754 7.361786132
-5.579145378 3.444925982 7.550206741
-4.546046811 5.010190043 7.364200847
[...]
CELL_DATA 7392
SCALARS TALLY_TAG double 1
LOOKUP_TABLE default
0.09480687316 
0.01094789894 
0.2452886321 
0.0104213035 
0.0005430743563 
0.009851546439 
0.1500306997 
0.007931573291 
0.006867407885 
0.0008239727423 
0.000652883012 
0.0009642733419 
0.000823161332 
0.002116483277 
0.0006790534884 
0.09960206014 
0.007250152389 
0.003006115056 
0.007501445232 
0.004302159888 
0.00771453127 
0.007574907491 
0.0008278418178 
0.004203005309 
0.007710032516 
0.002358012273 
0.004152817828 
0.002889147676 
0.003658315951 
0.01269086114 
0.002514302375 
0.003024950538 
0.003232017728 
0.006764682176 
0.004189873709 
0.003005586355 
0.002653709662 
0.004279498 
0.000929041183 
0.002938182514 
0.00103012335 
0.0005061569384 
0.001087180702 
0.001090670013 
0.001435730938 
0.002314090095 
0.006048564451 
0.02838911718 
0.0004504512083 
0.001112368342 
0.0006798324798 
0.001460825284 
0.0009225187881 
0.001105839799 
0.000719204847 
0.0006489846203 
0.0007907588854 
0.000533219304 
0.004583756471 
0.00254002049 
0.003984761457 
0.006265782573 
0.003409439057 
0.003747485699 
0.001906392743 
0.0005740467425 
0.0009426893129 
0.003186428512 
0.002878044331 
0.002618490317 
0.001719816961 
0.001910703611 
0.0005467984753 
0.005004388395 
0.003991297307 
0.0131245975 
0.003398389962 
0.00658478842 
0.007600304459 
0.0005718156437 
0.001872092724 
0.00217245323 
0.001964984695 
0.001867995977 
0.001016962587 
0.002505701647 
0.001215331701 
0.001521693162 
0.001332562582 
0.00191385584 
0.004043588695 
0.03820648717 
0.1321229459 
0.0004799755376 
0.0004629774363 
0.006800724534 
0.006150409299 
0.01209419263 
0.0004161130992 
0.002525606775 
0.002926149649 
0.007233404371 
0.001903750867 
0.005010978379 
0.003585261757 
0.00158248736 
0.001607720367 
0.0008898317154 
0.001030000108 
0.001637377098 
0.0008826708034 
0.0007772195964 
0.0005628762839 
0.0007909221639 
0.001378299038 
0.00106440407 
0.0007945166809 
0.0009104223443 
0.0009178438278 
0.00136796007 
0.001354731815 
0.001235187245 
0.001008549018 
0.0007960816993 
0.0005392398942 
0.0009587860111 
0.0006493324044 
0.0007106789435 
0.0008787118271 
0.000734655306 
0.0005329000605 
0.001146088689 
0.001009514571 
0.0006716667724 
0.001130843188 
0.001215049258 
0.003031835484 
0.00110335914 
0.001158857285 
0.001414795769 
0.0006928403755 
0.0004514237869 
0.001170062355 
0.0006948789786 
0.001017648488 
0.0009555488772 
0.01149560701 
0.0004600698737 
0.005879581981 
0.002837944602 
0.005275480334 
0.002515438145 
0.00194346171 
0.002612355474 
0.002408551018 
0.003532210669 
0.002689562085 
0.004067596193 
0.001352965372 
0.001505252243 
0.0005021859557 
0.001812662183 
0.002266055069 
0.001942562847 
0.001877718336 
0.002590803464 
0.0006420324344 
0.0005920114687 
0.0005630704901 
0.0005105052016 
0.0005140775906 
0.0004765298458 
0.0007378890283 
0.0005344891709 
0.0004012355869 
0.0005209211017 
0.0005692461988 
0.0006402549921 
0.0005210569024 
0.0005499452166 
0.0006658764527 
0.0007137987851 
0.0006330319503 
0.0008047341893 
0.0008195098499 
0.0009475456632 
0.0007574164911 
0.0008264211268 
0.0008562545806 
0.0004370881126 
0.0007275282934 
0.0007072164775 
0.0008367591463 
0.0005946704194 
0.001664929754 
0.0008626679934 
0.0008469546017 
0.0009027445689 
0.001273212141 
0.0006337686695 
0.0005373051027 
0.0005835237172 
0.0004984019125 
0.0006609762742 
0.0005041089619 
0.001183558725 
0.0006078640762 
0.000523707383 
0.0005711341374 
0.0005671140618 
0.0007482363802 
0.0004345744692 
0.0007310918394 
0.0006472552 
0.0005732549059 
0.0004980501288 
0.0005395928306 
0.0005975427138 
0.0005043272197 
0.001006631255 
0.0007114718559 
0.001072144843 
0.000654994495 
0.0005349560449 
0.001010838014 
0.0008138628479 
0.0008078188471 
0.0008100284129 
0.0006443558435 
0.0007127473525 
0.0009848462077 
0.0007824468064 
0.003658636888 
0.001880944226 
0.001061641725 
0.001091352367 
0.002401940365 
0.002234151543 
0.001281620769 
0.00129499407 
0.001598136299 
0.001027710649 
0.001956211225 
0.001688241593 
0.001620438063 
0.001954179873 
0.005791338274 
0.003077210179 
0.004023316107 
0.002785315753 
0.003902437176 
0.0007538446899 
0.000767780226 
0.001290732971 
0.001758134103 
0.0009880279666 
0.0009764386231 
0.0005235141574 
0.0004400564631 
0.001057316374 
0.001002956437 
0.001062423763 
0.0008516716121 
0.001080537015 
0.0005119058109 
0.0008041890105 
0.0007839714886 
0.0009580901269 
0.0005786758278 
0.0006043866252 
0.00106216677 
0.00139180269 
0.001986214592 
0.002735292503 
0.0004849549373 
0.0009809314215 
0.001175350807 
0.001482131212 
0.002377394896 
0.0008818996666 
0.001409263883 
0.001433002857 
0.001271124074 
0.0008375579039 
0.001151378786 
0.0005663237415 
0.001060679288 
0.001183521236 
0.002051893213 
0.009137999118 
0.003302173042 
0.002852235342 
0.002115027202 
0.002204439839 
0.01024303389 
0.003157837252 
0.004724056237 
0.00402336618 
0.003843271145 
0.003742478249 
0.003394095898 
0.001562356736 
0.004208197682 
0.002487227527 
0.00632341162 
0.003069267212 
0.0009473008277 
0.001492304396 
0.0008181683945 
0.0008158545185 
0.0009335977253 
0.0007152490898 
0.00183043351 
0.002197262343 
0.0007308431097 
0.005958785161 
0.004159872372 
0.002008050785 
0.002956011358 
0.001381755317 
0.001825233967 
0.0005104525199 
0.003819287585 
0.003224334818 
0.002128845851 
0.001785233515 
0.001582058532 
0.001140893293 
0.0008142184126 
0.0008036702092 
0.0009471151609 
0.0009629460988 
0.001432765244 
0.001090966843 
0.0009305374888 
0.0006251018735 
0.001423417808 
0.001032648562 
0.000785687128 
0.0009906251262 
0.0008989456766 
0.0008452232836 
0.0007751453589 
0.0006076380732 
0.001513104331 
0.0004166501635 
0.002705516904 
0.002928534401 
0.0008986711402 
0.001682555826 
0.001582385294 
0.0008696641961 
0.001363634596 
0.002259814369 
0.001427581801 
0.0007580377753 
0.0008334014068 
0.0007100763064 
0.001012245836 
0.001663247644 
0.0005587511979 
0.0007767837743 
0.002856786244 
0.003260902934 
0.002147631335 
0.002841659244 
0.001975061448 
0.001950517048 
0.001308019004 
0.005389440466 
0.001489652969 
0.001121662873 
0.0009732638529 
0.000684078197 
0.0009705759903 
0.001540121644 
0.001677511277 
0.00160423239 
0.0009141306994 
0.0008268925038 
0.001224663566 
0.0008528466871 
0.001200150094 
0.001713339702 
0.002579161037 
0.0008281614185 
0.005889782722 
0.003500156441 
0.001956331119 
0.0004622010986 
0.001693295107 
0.004452947643 
0.00290052806 
0.002693793875 
0.00463836182 
0.001596022438 
0.02678119686 
0.0034283307 
0.005684008791 
0.002795633793 
0.01189514167 
0.002369700961 
0.002145365313 
0.00236659962 
0.008115710587 
0.007876178717 
0.002384474841 
0.003209671083 
0.003109359893 
0.003452035639 
0.0005512555413 
0.003872432289 
0.003707855058 
0.00677020994 
0.002736707777 
0.0004550014738 
0.0004413563542 
0.0005410949877 
0.0005071926726 
0.0006390405816 
0.001063620177 
0.003573703887 
0.0007179590105 
0.0007730452774 
0.001233294554 
0.0008147427765 
0.001254483671 
0.002608991626 
0.002797051976 
0.001688861294 
0.001981879225 
0.001158585441 
0.002075970216 
0.0006922030077 
0.001578760585 
0.001501704142 
0.0006405047513 
0.001527482505 
0.001024283905 
0.001259604697 
0.001802323499 
0.001999541003 
0.0005331425922 
0.0004986974504 
0.0005824951896 
0.0004864425797 
0.0005680954281 
0.0005327900561 
0.0004778465643 
0.000421194205 
0.0006029295205 
0.0004004393102 
0.00464221373 
0.001486875584 
0.002970496063 
0.0009965648008 
0.0008407279185 
0.001256625926 
0.001298915909 
0.0006264988854 
0.0009683103655 
0.0008437863351 
0.0007310128546 
0.0007378630342 
0.0008437691272 
0.0007776693217 
0.001213371531 
0.0005609237997 
0.001873749541 
0.0008053769831 
0.001800783126 
0.004653395875 
0.004196887071 
0.002270341044 
0.002499616895 
0.001397151212 
0.002739310527 
0.00293543282 
0.001457583543 
0.001790287131 
0.0005334157363 
0.0008490924153 
0.0008994005071 
0.0006721632114 
0.0005873695804 
0.0004372117769 
0.0009995082161 
0.0008016190006 
0.0006199516832 
0.0005946430299 
0.0005708116974 
0.001021061498 
0.0007485452848 
0.0009102661849 
0.0007076926216 
0.0004836721918 
0.001249480012 
0.0005066944968 
0.0004822885992 
0.0005068974784 
0.000706483694 
0.0007281032719 
0.0006623141407 
0.0009886418528 
0.0009040783015 
0.0007939886163 
0.0008428848246 
0.000688962328 
0.0008553704294 
0.001274891429 
0.0009727908448 
0.002115244823 
0.002261760604 
0.00219043058 
0.002164364138 
0.001270020369 
0.000849040735 
0.002545622719 
0.001041803162 
0.003149777475 
0.00226257123 
0.002873923509 
0.004156213228 
0.0761177306 
0.004400621571 
0.001925630407 
0.001977069769 
0.0004252802355 
0.0004065036604 
0.002580504395 
0.0005561655062 
0.002009810999 
0.002481239516 
0.002752202562 
0.002438315275 
0.003402973237 
0.002381366177 
0.004169819928 
0.003029600729 
0.0009313035109 
0.0009090880065 
0.001148311111 
0.002185648173 
0.002417725101 
0.0009748056836 
0.001794788043 
0.003107459907 
0.003880696391 
0.06349464747 
0.0009668879261 
0.001207226021 
0.001030353264 
0.003685186247 
0.002029748726 
0.001216801822 
0.003742076302 
0.007562437415 
0.002840687503 
0.001037146457 
0.001989468676 
0.0026608007 
0.01302802583 
0.04707724978 
0.00267658522 
0.002983819898 
0.002604085131 
0.00118703205 
0.0006160540864 
0.0007208594267 
0.0006156911666 
0.0005630493488 
0.00053236699 
0.0004536587419 
0.0005672478481 
0.0004444623372 
0.0006362118805 
0.0009849545238 
0.0008107471663 
0.0007202240883 
0.0006357049 
0.0005575230353 
0.0006729836224 
0.0006659805689 
0.0006078582735 
0.000632260694 
0.0006474031949 
0.0005240201143 
0.0005636001379 
0.0005367114182 
0.0004671301444 
0.0005340870046 
0.0005605435355 
0.001932058854 
0.0005329658558 
0.5333637018 
0.001466646094 
0.001755717304 
0.001559772921 
0.0006982445812 
0.001035139439 
0.0007954586586 
0.0007458513753 
0.0008230143827 
0.0005621997598 
0.0008079331719 
0.0006486144464 
0.0005558194472 
0.0006431756973 
0.0005207903484 
0.001327207885 
0.001151655863 
0.001142569891 
0.0009165680403 
0.001559536132 
0.001088631917 
0.0009538159772 
0.0008386080388 
0.0009337347788 
0.0009412513232 
0.001626702752 
0.002451106191 
0.0007627011268 
0.001542988115 
0.0006920418928 
0.001280800056 
0.002496243393 
0.003115889387 
0.00145128974 
0.0009232578786 
0.002715303651 
0.0008500031451 
0.00106566599 
0.0006012647045 
0.0005963390036 
0.001103169239 
0.001172272488 
0.001031097873 
0.001229135417 
0.001163726967 
0.0005380707958 
0.0008057992514 
0.0009110056831 
0.001252184906 
0.0005607181365 
0.0005890610112 
0.001207844409 
0.0005168604092 
0.0006594641266 
0.001476764573 
0.02638752421 
0.004134627547 
0.004092418657 
0.004229914322 
0.0007664307091 
0.002866430296 
0.004103099934 
0.001110341942 
0.001342931961 
0.001258079339 
0.0009421245281 
0.0005836737503 
0.0007428627261 
0.0008631048963 
0.0009040117132 
0.0005678428063 
0.0004798200394 
0.0006592856284 
0.001256585697 
0.0008350267631 
0.0009251599587 
0.0005745994634 
0.001919362341 
0.3616205526 
0.008846223792 
0.0004284106649 
0.005364894966 
0.006177774592 
0.004652371353 
0.004138343966 
0.002739370685 
0.005581024275 
0.004070538594 
0.0006230541858 
0.002701614454 
0.0004753804856 
0.000942527074 
0.0009083707484 
0.0005377774656 
0.00125680764 
0.001074414246 
0.0006843137984 
0.0006232146763 
0.002164744165 
0.001015662311 
0.0006740077225 
0.0008534114981 
0.001036667448 
0.0008484632028 
0.0008717948336 
0.0008345444389 
0.001288525541 
0.001133843158 
0.001844511131 
0.002171776773 
0.0008568530681 
0.001281283721 
0.001286058635 
0.001333502004 
0.0005426321885 
0.001528582143 
0.0006984845745 
0.001266129256 
0.2536707058 
0.00361359208 
0.002332397171 
0.05827531625 
0.007101631054 
0.003691273542 
0.006985100794 
0.006990263592 
0.0006222625796 
0.000473095473 
0.00049367163 
0.0005897782262 
0.0003816662377 
0.0005741213056 
0.0005750817357 
0.0006305771082 
0.005310051226 
0.003054441756 
0.002360772593 
0.002847501078 
0.001363955089 
0.003060816741 
0.002374902521 
0.002181868451 
0.001007222223 
0.002134818128 
0.003422238639 
0.0007575683168 
0.00123854009 
0.001043066796 
0.002626300764 
0.002097744318 
0.00272103079 
0.002931710248 
0.1652100067 
0.001055600419 
0.002473442838 
0.003147310791 
0.0007650846518 
0.001291515901 
0.001029469047 
0.0007535564641 
0.0006086911613 
0.0006033279416 
0.0007376405925 
0.000564698584 
0.0007640994837 
0.0009365732491 
0.00103967413 
0.0007209511704 
0.001291815384 
0.0009604229715 
0.0006208339369 
0.0007813878067 
0.001017989963 
0.001032412339 
0.0008226789315 
0.0007920807301 
0.0005874478453 
0.0006125544907 
0.0010277147 
0.0008506567051 
0.001813958819 
0.001454169221 
0.0007142172051 
0.0006312183195 
0.0007584251468 
0.001211645523 
0.001694924529 
0.0008496440671 
0.006964540131 
0.001436420439 
0.0009305492733 
0.0009855870283 
0.0005248759045 
0.0008954199183 
0.001014451549 
0.0005825118586 
0.001324882361 
0.0008418902825 
0.0009111828817 
0.0006802792518 
0.0007282758675 
0.0007503465538 
0.0007734719056 
0.001832132772 
0.0008635056388 
0.003270207994 
0.001367511365 
0.00208340737 
0.002328439237 
0.003752802813 
0.001412411657 
0.007261625586 
0.002020546304 
0.002472918743 
0.001333615965 
0.001298105618 
0.004265021195 
0.001908628992 
0.002075682821 
0.001096933183 
0.001427329199 
0.001702729293 
0.001387783014 
0.002014467776 
0.001956172395 
0.2888372854 
0.008112388565 
0.007138895609 
0.0008897934669 
0.004684616493 
0.001902804775 
0.003003600057 
0.0008503073342 
0.001437685835 
0.0005135751174 
0.001312251178 
0.0008195480394 
0.0007050797667 
0.000620577021 
0.008127947601 
0.001060472535 
0.003584891883 
0.002270359762 
0.0005392859809 
0.0007363147043 
0.0008811047891 
0.001670285581 
0.001043063099 
0.0007660396092 
0.001218996659 
0.001638881269 
0.002259408329 
0.001244711616 
0.002071982067 
0.002255691827 
0.0004430345594 
0.0004428559345 
0.0005198431657 
0.0005392210765 
0.0004837680421 
0.0004453335525 
0.0005402389276 
0.0005766504661 
0.0009431546297 
0.0004296928653 
0.00110565081 
0.000610998432 
0.0007364856036 
0.002378634032 
0.0008184332133 
0.0007068851113 
0.000798118032 
0.0006433755145 
0.0006164074484 
0.0005875560968 
0.0005382071902 
0.000576594066 
0.0007960323629 
0.0009227932908 
0.0006891413516 
0.0006947008016 
0.03006875296 
0.002371953248 
0.001301131055 
0.001377342713 
0.001438844175 
0.0008398619484 
0.002376301724 
0.003804896279 
0.005542895635 
0.001988360671 
0.0005797119184 
0.002766453698 
0.00650034483 
0.01122681137 
0.006010582923 
0.001230117647 
0.001157355073 
0.0009305475147 
0.00086629848 
0.0008059734842 
0.0006281298356 
0.0009261181361 
0.001242261316 
0.0006433560568 
0.001142245783 
0.0006838939127 
0.001935921242 
0.004037680374 
0.002345415503 
0.0006258193821 
0.001992220068 
0.001746147815 
0.003352700882 
0.002600320144 
0.001621148014 
0.0004439003248 
0.0005786516815 
0.0006504534101 
0.0004283187338 
0.001316150394 
0.001000129414 
0.0004592691587 
0.0008283681719 
0.00273385583 
0.001927552593 
0.00114661595 
0.0007820546159 
0.0009004962128 
0.0008387824044 
0.001492541421 
0.0008872172474 
0.001136014713 
0.001678319386 
0.002172294488 
0.002361376776 
0.0004101538914 
0.002190609515 
0.0008652992072 
0.002195747002 
0.0007168166049 
0.000495656273 
0.0006043490334 
0.0006455583712 
0.0006503043764 
0.0005302699263 
0.0008257806215 
0.0008868410065 
0.001607532663 
0.001126375607 
0.000664931567 
0.0006887622065 
0.0006458937434 
0.000782252735 
0.001109105286 
0.001270775596 
0.0007738811557 
0.002260912158 
0.002757283336 
0.001270198881 
0.001135779645 
0.0005296324895 
0.001466608263 
0.00165451986 
0.001984439486 
0.003234443307 
0.001854636717 
0.0005773961375 
0.0009182606081 
0.0007074167769 
0.001306158663 
0.001522661583 
0.00537215987 
0.005798339885 
0.006456017986 
0.0005185890541 
0.001104719196 
0.0008541358017 
0.002464590939 
0.0005457140424 
0.0009564445887 
0.005359778288 
0.0006715617531 
0.0006038180686 
0.0005953509181 
0.0006043368081 
0.0006353435698 
0.0007364970176 
0.001413088615 
0.001981151416 
0.002083690215 
0.0005835030402 
0.001304781688 
0.0004234653112 
0.001109470649 
0.0006780656238 
0.0008691867252 
0.001008802144 
0.0008049351152 
0.001165188552 
0.0008880374113 
0.001526214442 
0.0006226423695 
0.001345661399 
0.001524412308 
0.001304290104 
0.00202782979 
0.001410877507 
0.0005199144445 
0.0006704120973 
0.0005418933119 
0.0007723780738 
0.0008416685161 
0.0007040420099 
0.0007665796714 
0.0008217599362 
0.001985317454 
0.0006367162179 
0.0007628132194 
0.0006009203796 
0.0006319065275 
0.0005594755099 
0.0007814524879 
0.0006866647561 
0.0009261709564 
0.001101578489 
0.0009476299051 
0.0007414964855 
0.001437949711 
0.001454157988 
0.001086898622 
0.0009743692786 
0.0009319062292 
0.002146762923 
0.0006357046677 
0.001498965405 
0.0013054224 
0.001103367034 
0.0008993052419 
0.0009009205462 
0.002729857406 
0.0006709660787 
0.000467847743 
0.0005742553704 
0.0005868395112 
0.0006898595379 
0.0008705024256 
0.0005494532535 
0.0004966380305 
0.0005378631872 
0.0004882519577 
0.0008611628354 
0.0007211608409 
0.0007276569944 
0.0008052652079 
0.0006588999606 
0.0006452074871 
0.001107314864 
0.0005450907235 
0.0008459165872 
0.0008446089608 
0.001063468175 
0.0006461650472 
0.001010365591 
0.001559510993 
0.0008727278061 
0.0006279515516 
0.0006622627553 
0.000680970833 
0.0005545784566 
0.0009186567544 
0.0008000904098 
0.0009557499451 
0.0007032569039 
0.001587038344 
0.001446048793 
0.0008577681764 
0.0008798757457 
0.001509230624 
0.0009729876397 
0.001154741698 
0.00105013658 
0.000700067622 
0.0007925026438 
0.0006905549968 
0.0006684454101 
0.000753512587 
0.0006260069417 
0.0006293427643 
0.000442658255 
0.0006843547501 
0.0005683506017 
0.0006024011648 
0.0007710141071 
0.0007064113728 
0.000672296275 
0.0005047167375 
0.0006650648946 
0.0005826807759 
0.000590277683 
0.0005841956002 
0.000556001063 
0.0004753190741 
0.0005997761818 
0.0006442822505 
0.00079704833 
0.0005343208653 
0.0007119784867 
0.0005049489846 
0.0005071696563 
0.0004633545922 
0.001582225293 
0.001755748018 
0.002118840549 
0.001509378725 
0.001976453447 
0.00205685471 
0.001213998846 
0.0009658740625 
0.0006732391053 
0.001283357741 
0.00142491284 
0.001002192984 
0.001040149235 
0.0009484749324 
0.0008053807734 
0.0005357639992 
0.0006448553589 
0.0005126285098 
0.0007297523581 
0.0005488446199 
0.001415290292 
0.0008370822823 
0.0007085216743 
0.000614556824 
0.0008929487633 
0.001312119514 
0.0006186553696 
0.0005917834366 
0.0006372616919 
0.001424901076 
0.001115050061 
0.002205890156 
0.001087864909 
0.00053585349 
0.0009965779813 
0.0008271582193 
0.0008119001789 
0.001062166591 
0.0007946714143 
0.0008683126946 
0.0008702098094 
0.00178890701 
0.001825874208 
0.0005431272324 
0.0009026609125 
0.003957097768 
0.0005895267607 
0.0005884020166 
0.0006751405143 
0.0007787333487 
0.001001920358 
0.001080565296 
0.000806201137 
0.001024704191 
0.0006401016645 
0.001455724055 
0.0006500963088 
0.0007885838777 
0.001345890137 
0.0007975584693 
0.001035163585 
0.0004961549086 
0.0009400373515 
0.0005200376888 
0.0005968461598 
0.0004782603368 
0.0005939730465 
0.000422261087 
0.0004477673303 
0.0005730200319 
0.000537919061 
0.0008611855375 
0.006503792007 
0.001022570141 
0.001158904667 
0.001098540187 
0.0005653406767 
0.0005354425912 
0.001978336406 
0.0009790347787 
0.01923203484 
0.0009286424773 
0.002142169551 
0.002046537121 
0.0007333826383 
0.000823888005 
0.0006411086 
0.0007147282295 
0.0006983646083 
0.0006639113342 
0.0006251058467 
0.0006177656379 
0.000897462494 
0.001069758142 
0.0007882008406 
0.0007287408602 
0.0009997997949 
0.0007454585508 
0.001961783041 
0.002288913054 
0.1414796677 
0.002664847497 
0.4623280329 
0.002766022357 
0.002418478 
0.001851386895 
0.003492269558 
0.0005550713461 
0.003199878275 
0.003470710416 
0.001988918896 
0.0005023701939 
0.0006065353853 
0.0006404648357 