# vtk DataFile Version 3.0
MOAB 4.9.0
ASCII
DATASET UNSTRUCTURED_GRID
POINTS 838 double
-12.5 0 -10
-12.5 -2.486898872 -9.685831611
-12.5 -4.817536741 -8.7630668
-12.5 -6.845471059 -7.289686274
-12.5 -8.443279255 -5.35826795
-12.5 -9.510565163 -3.090169944
-12.5 -9.980267284 -0.6279051953
-12.5 -9.822872507 1.873813146
-12.5 -9.048270525 4.257792916
-12.5 -7.705132428 6.374239897
-12.5 -5.877852523 8.090169944
-12.5 -3.681245527 9.297764859
-12.5 -1.253332336 9.921147013
-12.5 1.253332336 9.921147013
-12.5 3.681245527 9.297764859
-12.5 5.877852523 8.090169944
-12.5 7.705132428 6.374239897
-12.5 9.048270525 4.257792916
-12.5 9.822872507 1.873813146
-12.5 9.980267284 -0.6279051953
-12.5 9.510565163 -3.090169944
-12.5 8.443279255 -5.35826795
-12.5 6.845471059 -7.289686274
-12.5 4.817536741 -8.7630668
-12.5 2.486898872 -9.685831611
12.5 0 -10
12.5 2.486898872 -9.685831611
12.5 4.817536741 -8.7630668
12.5 6.845471059 -7.289686274
12.5 8.443279255 -5.35826795
12.5 9.510565163 -3.090169944
12.5 9.980267284 -0.6279051953
12.5 9.822872507 1.873813146
12.5 9.048270525 4.257792916
12.5 7.705132428 6.374239897
12.5 5.877852523 8.090169944
12.5 3.681245527 9.297764859
12.5 1.253332336 9.921147013
12.5 -1.253332336 9.921147013
12.5 -3.681245527 9.297764859
12.5 -5.877852523 8.090169944
12.5 -7.705132428 6.374239897
12.5 -9.048270525 4.257792916
12.5 -9.822872507 1.873813146
12.5 -9.980267284 -0.6279051953
12.5 -9.510565163 -3.090169944
12.5 -8.443279255 -5.35826795
12.5 -6.845471059 -7.289686274
12.5 -4.817536741 -8.7630668
12.5 -2.486898872 -9.685831611
1.07694508 7.511391508 -6.601439056
0.8185963877 9.071689547 -4.207665477
1.494970716 9.828413088 -1.844531422
0.8414666283 9.979982778 0.6324110667
1.182702778 9.397923088 3.417461285
1.443527586 8.218777606 5.696638892
1.945820002 6.874171119 7.26262841
1.489785152 5.23947282 8.517506946
1.336772993 2.980224457 9.545588624
1.275663053 0.487212137 9.988124165
1.254876553 -2.033772641 9.791004486
1.249182827 -4.416411811 8.971917672
1.248157458 -6.513962807 7.587376922
1.248156585 -8.198029651 5.726457006
1.248128226 -9.365033809 3.506585484
1.246864626 -9.942832028 1.06775056
1.238985833 -9.896569188 -1.434544634
1.223748312 -9.232259408 -3.842575468
1.204771611 -7.99436957 -6.007499911
1.187497256 -6.260158336 -7.798103462
1.169267607 5.528259127 -8.33296772
1.193329943 3.237293866 -9.461497156
1.194111071 0.7719569748 -9.970159599
1.182376962 -1.737239602 -9.847943875
1.183462342 -4.124523682 -9.109791677
-1.123281385 -7.319607746 -6.813467726
-1.099157771 -8.779285028 -4.787917544
-1.075148 -9.689250663 -2.473544336
-1.055360736 -9.999999993 0.0003754035565
-1.055448497 -9.685300731 2.488965597
-1.055793631 -8.761220831 4.820893024
-1.055745756 -7.285163474 6.850284166
-1.05500455 -5.347653821 8.450005835
-1.051604356 -3.065883371 9.518422094
-1.039420087 -0.5743841718 9.983490513
-1.001437659 1.986427759 9.800719604
-0.8944621605 4.486812429 8.936918609
-0.5714007152 6.851995786 7.283553648
-0.9821470846 8.644692608 5.026856843
-1.233107529 9.649642046 2.623815614
-1.657432456 9.988240822 0.4848146918
-0.988445825 9.830888951 -1.831289829
-1.655559614 9.148318401 -4.038349965
-1.271262706 8.073263911 -5.901051586
-1.148884296 6.355004324 -7.721005119
-1.138922015 -5.407488732 -8.411840798
-1.136603684 -3.147338354 -9.491799686
-1.13416876 -0.6934176587 -9.975929628
-1.121332431 1.812740945 -9.834326122
-1.117637614 4.20556982 -9.072661268
3.46630757 6.694847816 -7.428257718
3.396392896 8.397692761 -5.429434251
3.48339955 9.501478029 -3.117998598
3.487351987 9.983480888 -0.5745514372
3.432684051 9.806647001 1.956955442
3.592606907 8.991577392 4.376246793
3.803773479 7.684286434 6.399354811
3.816650433 5.96253766 8.02796018
3.666527862 3.895217361 9.21017273
3.591558679 1.527131314 9.882705599
3.564914387 -0.9739793827 9.952455183
3.557746812 -3.423431594 9.395749897
3.556700445 -5.656447564 8.246490221
3.556846891 -7.531306803 6.578709436
3.557037816 -8.931360513 4.497866092
3.556924824 -9.76946479 2.13484372
3.555402534 -9.993473385 -0.3612335952
3.547389479 -9.591064781 -2.830455153
3.527983434 -8.592001976 -5.116395416
3.504452647 -7.059263957 -7.082851996
3.488427323 -5.08548136 -8.610335611
3.510008913 4.581011205 -8.889000863
3.510696906 2.199883727 -9.75502494
3.50526464 -0.2944076358 -9.995665268
3.507576063 -2.760443925 -9.611448868
-3.467681736 -6.568434178 -7.540270052
-3.457510129 -8.237816922 -5.669071561
-3.426170256 -9.38288751 -3.458528876
-3.40155587 -9.946476328 -1.033251496
-3.400410327 -9.890643738 1.474844547
-3.40179858 -9.2120234 3.890838582
-3.401802927 -7.953815208 6.06109096
-3.401333732 -6.193526938 7.85112884
-3.399322969 -4.038574193 9.148219416
-3.392371831 -1.618069741 9.868224274
-3.372505927 0.927680326 9.956877483
-3.315610278 3.45447584 9.384380463
-3.206417266 5.809979849 8.139049954
-3.24385282 7.751247511 6.318082148
-3.446505279 9.121862332 4.097758851
-3.640658166 9.845110227 1.753226916
-3.602601853 9.977901472 -0.6644412829
-3.596210457 9.552498192 -2.958002417
-3.646148873 8.563460576 -5.164023911
-3.514469859 7.078728678 -7.063398637
-3.458169096 5.117842885 -8.591139866
-3.477419016 -4.50149798 -8.929530555
-3.477908579 -2.14557962 -9.767112577
-3.471812706 0.3439161367 -9.994084335
-3.461238713 2.806628558 -9.598064187
5.7849969 5.778484858 -8.161440605
5.760799417 7.657506611 -6.431375631
5.762985471 9.03177137 -4.292680505
5.782197838 9.823299666 -1.871572514
5.783333203 9.978271089 0.6588672614
5.824881071 9.500894672 3.119775701
5.930025884 8.434745802 5.371690912
5.981152855 6.861178131 7.274904443
5.946443544 4.879809383 8.728542856
5.8768487 2.610881765 9.653149559
5.841849996 0.1500180742 9.998874666
5.830475912 -2.339546329 9.722475147
5.828405349 -4.686156897 8.834021368
5.828398892 -6.73727856 7.389795505
5.828640476 -8.364031347 5.481147656
5.82879294 -9.464659186 3.228037562
5.828672723 -9.970158984 0.7719649171
5.827028766 -9.848828916 -1.732215054
5.819582871 -9.109232728 -4.125758005
5.810704669 -7.798421163 -6.259762564
5.796048585 -6.006526304 -7.99510111
5.800820005 -3.824967125 -9.239568523
5.808837382 3.549423312 -9.348881973
5.81475914 1.108924234 -9.938324157
5.806707767 -1.400334073 -9.901467794
-5.776305542 -5.709401416 -8.209916898
-5.773702925 -7.574750822 -6.528640745
-5.756664843 -8.954266396 -4.452090892
-5.733457886 -9.776404939 -2.102832963
-5.72671248 -9.992151538 0.3961157038
-5.734417103 -9.576846301 2.878196471
-5.734835162 -8.559050338 5.171330323
-5.734532169 -7.002399206 7.139075945
-5.733337008 -5.002583197 8.658762115
-5.728921788 -2.681833566 9.633678878
-5.714504027 -0.1803715428 9.998373173
-5.68942031 2.351756616 9.719528837
-5.63600284 4.746988971 8.801482586
-5.629039022 6.837889349 7.296798562
-5.705163971 8.464027445 5.325433261
-5.82282503 9.524500931 3.046946344
-5.877386853 9.981478346 0.6083502588
-5.867139061 9.830819149 -1.831664506
-5.857228253 9.090093877 -4.167756387
-5.827635987 7.789329572 -6.271072063
-5.790655818 5.999902114 -8.000073414
-5.773922696 3.837128327 -9.234524687
-5.785909139 -3.505177355 -9.365560939
-5.785736213 -1.074704725 -9.942082767
-5.788042223 1.415009858 -9.899381147
8.064245458 4.767460022 -8.790410965
8.054921883 6.81584109 -7.317397778
8.048976727 8.429435235 -5.380020597
8.051837834 9.507654425 -3.09911396
8.048142451 9.980596408 -0.6226518564
8.073780286 9.821350194 1.881775856
8.108387727 9.046211137 4.262166594
8.14758546 7.707935267 6.37085033
8.14745812 5.892825389 8.079270322
8.122609143 3.716057575 9.283906295
8.09660373 1.309692888 9.913864259
8.08635183 -1.193074827 9.928573536
8.084395173 -3.625285561 9.319726638
8.084270933 -5.829762965 8.124891616
8.084409658 -7.667560212 6.419386294
8.084505795 -9.023347104 4.31036043
8.084588543 -9.811973134 1.930073372
8.0848599 -9.983616491 -0.5721903164
8.085311769 -9.527154217 -3.038639914
8.076995592 -8.47351935 -5.310317299
8.067330872 -6.891155207 -7.246515019
8.062630621 -4.876144989 -8.730590475
8.073307378 -2.542801479 -9.671306046
8.075010235 2.429241814 -9.700452784
8.082606355 -0.05207853628 -9.99986439
-8.063455954 -4.741797579 -8.804280534
-8.060030941 -6.781887124 -7.348877944
-8.042524458 -8.391145384 -5.439547696
-8.023193928 -9.475645361 -3.19564469
-8.029246275 -9.973061013 -0.7335216666
-8.038646142 -9.840876413 1.77683748
-8.042599014 -9.086089941 4.176478132
-8.042448433 -7.761395737 6.305611486
-8.041974694 -5.947837384 8.038857534
-8.0404211 -3.758146669 9.266948452
-8.03460529 -1.328036286 9.911423693
-8.009870698 1.192949608 9.928588582
-7.9700658 3.634309659 9.316211317
-7.966162542 5.86176478 8.101833969
-7.98097109 7.70394092 6.375679908
-8.044990322 9.051239374 4.251478071
-8.096116107 9.823855116 1.868654771
-8.107958328 9.981076944 -0.6149008367
-8.103768517 9.519785846 -3.061646199
-8.088529091 8.467736115 -5.319534292
-8.070464627 6.885641443 -7.251754403
-8.061425507 4.871921388 -8.73294807
-8.069692697 2.547752056 -9.670003075
-8.067336875 -2.413355404 -9.704417329
-8.071202056 0.06682850027 -9.999776695
10.28995914 3.661935853 -9.305386924
10.28908549 5.8662633 -8.098577338
10.28511201 7.698573777 -6.38215965
10.28342562 9.045931767 -4.26275949
10.29179091 9.822509688 -1.875714113
10.30104239 9.980102393 0.6305205923
10.31564246 9.511179869 3.088277433
10.329113 8.443492321 5.357932197
10.32830444 6.84664512 7.28858358
10.32181851 4.823261033 8.759917409
10.30940872 2.500020829 9.682452988
10.30421964 0.015314581 9.999988273
10.30320318 -2.47206115 9.689629181
10.30310051 -4.804268604 8.770347951
10.30313733 -6.834543545 7.299932502
10.30315651 -8.435333877 5.370767392
10.30315228 -9.506067692 3.103977615
10.30321675 -9.979381269 0.6418329096
10.30373565 -9.825286536 -1.861113774
10.30526231 -9.053130623 -4.247449342
10.30353426 -7.712412491 -6.365429567
10.3025793 -5.888337477 -8.082541788
10.30560222 -3.691238675 -9.293802077
10.30056214 -1.267339907 -9.919367397
10.30066041 1.239771677 -9.922850709
-10.2880067 -3.654058569 -9.308483012
[...]
CELL_DATA 3775
SCALARS TALLY_TAG double 1
LOOKUP_TABLE default
0.004725461476 
0.007870391852 
0.003184710071 
0.00275232357 
0.004388676271 
0.002297548052 
0.003342775829 
0.002210460636 
0.009502837239 
0.008409576612 
0.1609402083 
7.171850266e-05 
0.0001998753961 
0.01841207367 
0.003534280379 
6.193126123e-05 
0.004650091104 
0.03093239352 
0.1235269388 
0.007978234169 
0.01461628137 
0.0218721004 
0.01267631117 
0.002885476786 
0.002126945141 
0.001723538363 
0.006772185409 
0.00218251675 
0.0002239097385 
0.0002636090872 
0.0003119006834 
0.0002833624599 
0.0004294233646 
0.002736774721 
0.0005094885414 
0.0005415514888 
0.01557994904 
0.004613369636 
0.006268689837 
0.01885602553 
0.007557804784 
0.002502563406 
0.001037764566 
0.004793608451 
0.003936936991 
0.001334530399 
0.001091105035 
0.0007519893441 
0.0008362035429 
0.002174138666 
0.003730850064 
0.00290471845 
0.0008049970993 
0.0007905561088 
0.002302249181 
0.001365115817 
0.002833885106 
0.003987300609 
0.01109989331 
0.003127160117 
0.008668499424 
0.002704745532 
0.002138420901 
0.00156596161 
0.001626639292 
6.665819761e-05 
0.001286984582 
0.002515106159 
0.004017587981 
0.002288476191 
0.004703992857 
0.007558591375 
0.002246761663 
0.005008772539 
0.002638129785 
0.00147748687 
0.001160906801 
0.001614746659 
0.000332820954 
0.0003568563102 
0.001659397232 
0.0008468276315 
0.0004959112362 
0.0009947259193 
0.0001544470906 
0.0004670859914 
0.0001760962585 
0.0002119695174 
0.0003100475001 
0.0006353770563 
0.0006096815182 
0.001027794053 
0.0007433632537 
0.0009274918936 
0.001546320835 
0.002181361781 
0.002435801043 
0.0003453609335 
0.0003837809787 
0.0003907053989 
0.0004003207721 
0.0002305759733 
0.0001934721231 
0.009365836435 
0.03185931562 
0.007490317609 
0.0360965241 
0.01976438501 
0.004451462921 
0.007818732324 
0.007036295934 
0.0006382479458 
0.0002383462462 
0.0003747037207 
0.0002623814573 
0.0003882292012 
0.000465350138 
0.0008258199006 
4.051445587e-05 
0.0003983627107 
0.001045895166 
0.002755230475 
0.002570803504 
0.001955644984 
0.00454827599 
0.003055135481 
0.002134727131 
6.476374357e-05 
0.006204385838 
0.002213018607 
0.004499448256 
0.005333068077 
0.003653049465 
0.003232240153 
0.01355358358 
0.001385118212 
0.000893875145 
0.0006490027489 
0.0005035627513 
0.0006941417402 
0.000535034772 
0.0005773896026 
0.0001345194718 
0.0001064849501 
0.001734791865 
0.0001123176492 
0.0001737523215 
0.0001303785964 
0.0001887688028 
0.0001386270967 
0.0005880263104 
0.0003559928621 
0.0003180585847 
0.0002975040236 
0.0003783935634 
0.0005256500431 
0.0005090398778 
0.001569207852 
4.88834482e-05 
0.0006578435747 
0.0008737625361 
0.000998384797 
0.0009432184806 
0.001131879328 
0.001123680376 
0.0004465808756 
0.0003805243852 
0.000776182997 
0.0003990501098 
0.0006418687732 
0.001098753442 
5.347985855e-05 
0.0009708828667 
0.000782095421 
0.0002384803855 
0.0003741808368 
0.0002666474445 
0.000344355588 
0.0004670560662 
0.0006209414526 
0.0005112628033 
0.0005580757312 
4.918383032e-05 
0.0007373710793 
0.0003896234527 
0.0007300334388 
0.001179749262 
0.0006645849433 
0.003438841426 
0.0003713074469 
0.0051804599 
0.003582637236 
0.001882310412 
0.001816781231 
0.001121644169 
0.001889108744 
0.003232564709 
0.2294064576 
0.001396040336 
0.006323323945 
0.003446697065 
0.002578655345 
0.0002009003494 
0.000446961417 
0.0002979319513 
0.0002561257946 
0.0001738492227 
9.1372506e-05 
0.0007365114097 
0.000289254218 
0.0003608233791 
0.0001923445639 
0.0002121973825 
0.0002828484153 
0.0001912564439 
0.0001531725111 
1.065784344 
0.003819025213 
0.001741500274 
0.002842371826 
0.002132234904 
0.005537102189 
0.0394708536 
0.001567223111 
0.005499131508 
0.00733280977 
0.02277122972 
0.004121533192 
0.01014835079 
0.002348723588 
0.009298226041 
8.792863884e-05 
0.0001209021352 
0.0001134454376 
0.0007636964399 
0.0003299662021 
0.0003678787565 
0.0004773812889 
0.000285457215 
0.000184238538 
0.0006801956874 
0.0009973822655 
0.001656512016 
0.003659926542 
0.00130383979 
0.0002063189229 
0.0002074045668 
0.0004959922409 
0.0005158099646 
0.0001247034644 
0.0001945453688 
0.0007674210275 
0.0002236500759 
0.0003219461087 
0.0006980221918 
0.0002280254719 
0.0002298666633 
0.001090798989 
0.0005401627194 
0.0001592018213 
0.0001496136761 
0.0003630396677 
0.0001806878913 
0.0006621926493 
0.000641825496 
0.0007525530986 
0.0002935911274 
0.000695117898 
0.0008053604842 
0.0005108022811 
0.0007900922552 
0.000472100547 
0.0005039909627 
0.0004228251301 
0.0004507484047 
0.0004377491226 
0.001925382082 
0.001970960929 
0.004596123689 
0.003641904753 
0.007309179615 
0.0104241295 
0.003772263141 
0.006782687846 
0.006966633597 
0.0007304800605 
0.002458282804 
0.006577500158 
0.006623051464 
0.003164621653 
0.001146364671 
7.269614005e-05 
0.001043048592 
0.001875154655 
0.002818863347 
0.002523518748 
0.0009378450351 
0.001184752918 
0.0007768852061 
0.001936508963 
0.002037724255 
0.001847054608 
0.003019325731 
5.458915334e-05 
0.00421807464 
0.001223693713 
0.001990357495 
0.002588406189 
0.002388585103 
0.9964924334 
0.008681078726 
0.01043621289 
0.001857861147 
0.006010690717 
0.003119886244 
6.097432856e-05 
0.006133069774 
0.003037509213 
0.005976765646 
0.0001203664679 
9.938372388e-05 
0.000289558235 
0.0001492580169 
0.0001691896791 
0.0006350155162 
0.0006178000388 
0.0002361147233 
0.0001922686075 
0.0002403681003 
0.0001828968784 
0.001754967914 
0.0008192057349 
0.001219184451 
0.0007402787923 
0.00108348641 
0.0009872688532 
0.001527095216 
0.005185367814 
0.001627634539 
0.0005984936735 
0.0008869750462 
0.0004844227327 
0.001058617267 
0.001005489942 
0.001261542836 
0.001047008962 
0.0008136420671 
0.0002485210006 
0.0005040356727 
0.000248662426 
0.0009202242911 
0.0008886224852 
0.0004196971174 
0.0001874851366 
0.000670983212 
0.0002941127685 
0.0003000680129 
0.0007520259599 
0.0004329080227 
0.0006868429491 
0.0001761297711 
0.0005399490362 
0.0003137317463 
0.0001482229804 
0.001046157842 
0.0004558982295 
0.0003563109916 
0.0009204491244 
0.0004642899837 
0.001090706307 
0.01292324115 
0.00491171286 
0.002616162477 
0.004483175315 
0.0003028509698 
0.004005247705 
0.0004236244092 
0.001968402854 
0.001812929577 
0.004889862659 
0.001596316894 
0.002444400739 
0.001114734618 
0.00123870732 
0.0009353889571 
0.0005713846563 
0.001427410735 
0.005352921432 
0.001027579905 
0.0003051982342 
0.0002272047817 
0.0004154602483 
0.0005728584291 
0.000208437219 
0.0001764491337 
0.0009238768352 
0.0008693449963 
0.000250025299 
0.0002023129968 
0.0002045635345 
0.0002242600009 
0.0001601103543 
0.0004018303652 
0.0006243680108 
0.001576785911 
0.001788247092 
0.0009776345852 
0.001444773397 
0.0004318063819 
0.0009087416938 
0.0005128367479 
0.000620502123 
0.0005183219208 
0.001917861149 
0.0004365920581 
0.002048776566 
0.001172148184 
0.0007093499163 
0.0002867757235 
0.002421764657 
0.003264585439 
0.001628791526 
0.0008020109474 
0.01774062811 
0.00244534719 
0.007333779298 
0.002064865593 
0.003069060254 
0.002916876806 
0.002284222641 
0.003838331056 
0.001812212775 
0.003005781963 
0.0002472332585 
0.003834446744 
0.001186246124 
0.002374465119 
0.0002680133875 
0.001204772068 
0.4699415414 
0.0002577303144 
0.0005791462998 
0.002188621338 
0.001705050725 
0.003465974466 
0.002358500446 
0.003891858212 
0.001417120026 
0.00681975733 
0.003725076717 
0.7828950552 
0.005270697213 
0.008448503519 
0.005467348892 
0.006336766834 
0.001306983429 
0.001627852607 
0.0008856519998 
0.000706284258 
0.0002598311618 
0.001093286686 
0.009976731943 
0.002435504374 
0.00106398008 
0.003738456094 
0.003280545675 
0.0037103336 
0.001594700854 
0.006143229268 
0.001251800298 
0.01165870341 
0.001947078262 
0.002405734441 
0.001794997237 
0.002594256587 
0.001602373114 
0.001890930739 
0.00203908339 
0.001459881107 
0.002147158671 
0.001854990457 
0.00226543541 
0.003520300026 
0.001466469643 
0.0004034473552 
0.0002629860023 
0.0003233837343 
0.0004861594145 
0.001036487575 
0.0001976577418 
0.0003456776223 
0.001642629064 
0.001131799752 
0.002863551844 
0.0002336011257 
0.0007363758142 
0.001145533841 
0.003449341932 
0.0006240112701 
0.0007597786583 
0.001098022151 
0.005606115274 
0.003164355057 
0.0009571260549 
0.0009336683723 
0.001522790311 
0.0009991418127 
6.807208649e-05 
0.001762220858 
0.001897034417 
0.000579569643 
0.001646810501 
0.0003297880563 
0.0001769610546 
0.0002541471737 
0.0009677677335 
0.0002657704845 
0.0003058388494 
0.0002132240708 
0.0001693093051 
0.0002255055048 
0.000247798779 
0.0005541560686 
0.000541905528 
0.000239943273 
0.0003328313364 
0.000593390648 
0.001752584803 
0.000179899906 
0.0002969265686 
0.000194755 
0.0001839473438 
0.0007007122572 
0.0001565707204 
0.0007184211838 
0.000692696823 
0.0005023468035 
0.0009999965075 
0.001272194714 
0.0004311764693 
0.0002521341371 
0.0009556772998 
0.0006535442441 
0.0004160720285 
0.0003174021166 
0.0005839816552 
0.0002712867823 
0.0001996963003 
0.001378529866 
0.001312401696 
0.001141372517 
0.005277724013 
0.000914255041 
0.00218826684 
0.001134779015 
0.001019751765 
0.000674170844 
0.0003669160021 
0.0006334398652 
0.0005692830796 
0.001669241061 
0.0008940370377 
0.0003690489855 
0.0004021876724 
0.0005169357347 
0.001509226048 
0.001754452108 
0.0009889640299 
0.001058387807 
0.0004508491738 
0.001034746344 
0.0002511595405 
0.001645768037 
0.001329419915 
0.002071452555 
0.0002232348935 
0.0007206070861 
0.0007738492991 
0.002181336013 
0.0002145874241 
0.0007011596681 
0.0002153730955 
0.001785325228 
0.01161724944 
0.009253933147 
0.0005286132487 
0.0005764464975 
0.004850333851 
0.001978716153 
0.002729237437 
0.001032046885 
0.001399395033 
0.0008183463621 
0.002301061429 
0.003243553404 
0.0008848952163 
0.0003874107491 
0.0006175696084 
0.0004828025042 
0.0008765150912 
0.001227715572 
0.001169703901 
0.0009415712609 
0.000195389098 
0.0001568535413 
0.002522265623 
0.00216289197 
0.001146904835 
0.001137435852 
0.0009452332961 
0.002602733592 
0.002739488723 
8.586558531e-05 
0.001256841946 
0.001105250389 
0.001302008166 
0.0008612042235 
0.0003312222086 
0.001093991655 
0.001898898746 
0.002775551662 
0.0007684355033 
0.0003497223358 
0.00109333234 
0.002432463675 
0.0008767803741 
0.0004621092254 
0.002840670691 
0.001102284857 
0.00656320245 
0.001137573891 
0.0005333142939 
0.003135292528 
0.0002545525347 
0.0006758471233 
0.0004335261078 
0.001484839194 
0.001026781404 
0.007371627673 
0.001279378317 
0.001072882177 
0.00119370453 
0.001054864873 
0.002499409916 
0.00284947818 
0.001521571162 
0.001150376729 
0.001995000092 
0.0007822579581 
0.0006131480783 
0.00231854048 
0.002670833771 
0.003641362209 
0.0001456121742 
9.246375509e-05 
8.164917136e-05 
0.0001908492759 
0.00016262984 
0.0002534779388 
0.0001543053396 
0.0001211673154 
0.0002267737397 
0.0001110607218 
3.746477458e-05 
6.475450335e-05 
0.0005800647186 
0.001044166674 
0.002252428346 
0.0009019232266 
0.0009030693537 
0.0005889521567 
0.0007517643294 
0.008175838297 
0.001691743035 
0.0006267911249 
0.0003085031741 
0.0008481224853 
0.0007648781178 
0.001245034697 
0.000413698744 
0.0004683990382 
0.0003530632056 
0.0003744791585 
0.0001290850432 
0.001338534815 
0.0004296022238 
0.0005147057918 
0.0004182083196 
0.0004288041569 
0.0004393024615 
0.0007252502654 
0.0004079807834 
0.0004715285026 
0.0008307745963 
0.0005560746964 
0.0007618327918 
0.0004585905072 
0.0007187110318 
0.001510771514 
0.0003668715644 
0.001683902138 
0.0007781960348 
0.001127572337 
0.008296583223 
0.002796626389 
0.001471281132 
0.001238790758 
0.0009260733603 
0.001005440895 
0.000866385032 
0.0004340735418 
0.0004633820783 
0.0007377246563 
0.0003788775939 
0.000339362819 
0.0009143143856 
0.000451048547 
0.001041434189 
0.0001146154018 
7.689072847e-05 
9.821278908e-05 
9.848496842e-05 
0.0008665534053 
0.001150996678 
0.000617181407 
0.0005878986893 
0.00111584911 
0.0001351354546 
0.001238393212 
0.0001507899846 
0.000133784978 
0.0002487184673 
0.0006052385567 
0.0006592911263 
0.000229112996 
0.0001601659913 
0.0004762953789 
0.0007107863855 
0.0006391221262 
0.0004166194108 
0.0005408211145 
0.0009231140972 
0.001167040362 
0.0009317965085 
0.0008191628408 
0.001447552799 
0.0007562081558 
0.0005961045591 
0.0009020019954 
0.002669727318 
0.0008814983257 
0.001116806047 
0.001602128349 
0.0009635111909 
0.0004389389822 
0.0003940848325 
0.0006855896284 
0.0003469346943 
0.0003849100235 
0.0007399588392 
0.0008094915803 
0.0005427982467 
0.0001985519694 
0.0007823203791 
0.0003874858332 
0.0001298255649 
9.226503726e-05 
8.118819825e-05 
9.668349922e-05 
9.961621532e-05 
0.0002489798407 
0.0001816268708 
0.0002584268642 
9.786723638e-05 
0.0001569584453 
0.2587313559 
0.00275500038 
0.001712289644 
0.00109440666 
1.227342461 
0.005592223621 
0.003334591239 
0.002068154112 
0.002069284081 
0.002775996046 
0.004462898824 
0.006481085608 
0.0003235659584 
0.0002673400474 
0.0002192277144 
0.004315147092 
0.0004396122885 
0.0007097601633 
0.001830795027 
0.0005459191744 
0.001261245089 
0.002023659707 
0.000492288897 
0.005975057555 
0.00135835904 
0.001610970312 
0.00549809019 
0.001470377728 
0.00544312539 
0.000133003818 
7.50383169e-05 
0.0001426683041 
9.887016418e-05 
0.0008042239897 
0.0001190547686 
0.0001215832456 
5.392347452e-05 
0.0001370215214 
0.00128826332 
0.0004672146244 
0.00130159703 
0.00110193776 
0.00115460533 
0.00222198712 
0.001129403125 
0.002538874614 
0.0006347845105 
0.00161095003 
0.002366943329 
0.0006080040155 
0.0008722559204 
0.001455505392 
0.001504980351 
0.0004434994385 
0.002895744363 
0.0008323517986 
0.001788907408 
0.001813374091 
0.001187249182 
0.001485456032 
0.001725425806 
0.0001023362431 
0.0001005840009 
9.341724337e-05 
0.0001683115708 
8.837751325e-05 
0.0002347993658 
0.0008232576271 
0.005429685945 
0.001940784891 
0.004301263474 
0.00145812956 
0.0002023220057 
0.0002884064556 
0.0003289384492 
0.0002291909483 
0.0003157923975 
0.0002422776854 
0.0002384422373 
0.0008668930449 
0.0004287892258 
0.0007030314752 
0.0003852334481 
8.082012871e-05 
0.0002712057095 
0.001786975091 
0.0007311860266 
0.0006708633606 
0.0006942330704 
0.0007107105583 
0.0006406137781 
0.0001269536074 
0.0009057644648 
0.001120803748 
0.0005163311508 
0.0007739752288 
0.001589340968 
5.622829557e-05 
0.0006266545627 
0.0008145520824 
0.0001755562277 
0.0006024070379 
0.0001876211581 
0.04084294748 
0.006269489911 
0.002797037633 
0.00328581887 
0.0007929016774 
0.002339515722 
0.0006844649175 
0.0005626598608 
0.0004850515146 
0.0004033805122 
0.0006013107321 
0.0006093538562 
0.000443824889 
0.0004425782454 
0.0002355419561 
0.00150199872 
0.006844694559 
0.0001894729837 
0.0003959284862 
0.000323481349 
0.0001844758139 
0.000175736571 
0.0001102869127 
0.0001915387825 
0.0001956206673 
0.0002003217922 
0.0002189138223 
0.0002433429054 
0.001193177255 
0.001286811755 
0.001154000251 
0.001090690228 
0.001263079362 
0.001766621323 
0.001584720736 
0.0001698204599 
0.0001408610872 
0.0001776560085 
0.0002027626763 
0.00170012684 
0.0003708406324 
0.000178511128 
0.0006353301704 
9.208038492e-05 
0.0007086379469 
0.0003967655161 
0.0002962017927 
0.0001113257428 
0.0001034075206 
0.0003489218384 
0.0008672933264 
0.0001624495291 
0.0002660060457 
0.0001132891414 
0.0009063812018 
0.001314618958 
0.002315983875 
0.001785692755 
6.155772555e-05 
0.001489938153 
0.01345986654 
0.002395975672 
0.0009318707856 
0.001241521505 
0.003128517207 
0.008686096371 
0.001192668648 
9.700230931e-05 
0.0001734893938 
0.0001270370937 
0.000109404962 
0.0001025101554 
8.665054439e-05 
9.63994241e-05 
8.806850618e-05 
0.0001232914755 
0.0001162306922 
0.0001768139007 
0.0001486948777 
0.001828186099 
0.001686494126 
0.001381689722 
0.0008756798228 
0.001682919401 
0.000134334727 
8.926695182e-05 
0.0001768213535 
6.618037877e-05 
0.0001160442354 
0.0005237095858 
0.0008533568315 
0.0005523671266 
0.0006824322098 
0.0008862079262 
0.0006807664487 
0.0003843617455 
0.003073675018 
0.002593673823 
0.0008602881772 
0.002406321625 
0.00082611175 
0.0007149206479 
0.000990343346 
0.001000100106 
0.006545124999 
0.0002687691873 
0.000105921904 
0.0004823161901 
0.0009082959316 
0.0005873170268 
0.0005896990639 
0.0007909002268 
0.0006331330562 
0.0001426527705 
0.0007088653525 
0.0008523202596 
0.0001176421841 
9.686933678e-05 
9.677556216e-05 
0.0002312374475 
8.3387535e-05 
0.0001268674305 
0.002969898295 
8.918078683e-05 
4.314545334e-05 
7.247288862e-05 
8.46012569e-05 
0.0001956649374 
0.0001536365104 
0.003577977629 
0.001020601693 
0.0002873807687 
0.0004125027385 
0.0002963086651 
0.0001519084227 
0.0008926900188 
0.0001985349312 
4.625755981e-05 
0.0002510937865 
9.111888723e-05 
0.0002169772821 
0.0004282152672 
0.002775896421 
0.0008466348475 
0.0004320061972 
0.0004099707172 
0.0005353066849 
0.000578662546 
0.00111220257 
0.0003859522269 
0.0002067161727 
0.0003485601407 
0.0003244681095 
0.0001573581205 
0.003152066627 
0.0007053996696 
0.0006979313956 
0.0005802232429 
0.0008107682752 
0.0006133906022 
0.0008178932229 
0.0007337398028 
0.0005576982032 
0.0005007951867 
0.0005139052222 
0.0007780823546 
0.0006189934816 
0.0009678806306 
0.0008368396772 
0.001694062929 
0.0008432142975 
0.0002490538452 
0.0005233604792 
0.0003032427577 
0.0001881494833 
0.000163437108 
0.0007907286124 
0.0004201474692 
0.000102345895 
0.0001921567328 
0.0001137135705 
7.603556486e-05 
8.967845608e-05 
9.222096079e-05 
8.532744096e-05 
9.929088376e-05 
6.948806146e-05 
4.190745627e-05 
0.001535872179 
0.001131072512 
0.0001329017082 
0.0005796933031 
0.0001145159588 
0.000845141653 
0.008160420649 
0.001160232888 
0.0009533162489 
0.003021861328 
0.0002798969061 
0.0005091408707 
0.0004516383381 
0.001190472459 
0.000356409906 
0.0003707051455 
0.001629633602 
0.001407751774 
0.0004276690023 
0.0003185367503 
0.0006174533586 
0.001960667044 
0.00100065299 
0.0005096398787 
0.0008517277357 
0.001219075694 
0.0007856669142 
0.0005894503163 
0.001016230783 
0.0007607744922 
0.001180944655 
0.002066789607 
0.001794264015 
0.001035137558 
0.001459759837 
0.001207170334 
0.0008291832976 
0.0007295747697 
0.0003139291407 
0.0004189596935 
0.0002025692491 
0.0002627389476 
0.0001195169245 
0.002267623324 
0.002317542291 
6.794983668e-05 
0.0009092518449 
0.001535352115 
0.001137047078 
0.00152644984 
0.001254232555 
0.001589372555 
0.001043169978 
0.002852447551 
0.001855212481 
0.001197726159 
0.001433003708 
0.001669553362 
0.008404447021 
0.0006924922556 
0.004240691889 
0.001859428667 
0.00265987192 
0.001265383284 
0.0008644394036 
0.0001954808887 
0.0005150805879 
0.0002819129327 
0.0002883639193 
0.000278241213 
0.0002730881779 
0.0009689024333 
8.644408051e-05 
0.0003223975894 
0.002822012337 
0.0004494685231 
0.000589472772 
0.0002241444334 
0.000157931786 
0.0002508892011 
0.0001242574898 
0.000219542684 
0.0002039030411 
0.0002725833476 
0.0001454779423 
6.019381319e-05 
0.0001022222224 
6.526328239e-05 
0.000103349197 
0.0002072761928 
0.0001699527463 
0.000481355066 
7.592928599e-05 
0.0001113948018 
0.0001572126787 
0.0003300350257 
0.0001487998053 
0.0002173460103 
0.0002952032288 
0.0003807102902 
0.0004106883492 
0.0008207010447 
0.0003035582761 
0.0004163015128 
0.004446059171 
0.001386188217 
0.002830870833 
0.00628174537 
0.02829233052 
0.002815165819 
0.001536415369 
0.001249095712 
0.0005797127349 
0.0005858868802 
0.005501906182 
0.000378953586 
0.001452527534 
0.0004821033716 
0.0007208566181 
0.001429112033 
0.0006022024096 
0.0004941984069 
0.003250875393 
0.001249774566 
0.001342391414 
0.0004705694887 
0.001770622413 
0.004677477998 
0.0008800558751 
8.705334928e-05 
0.0007263180691 
0.001019341428 
0.001148592522 
0.004374036058 
0.00941689979 
0.002155889657 
0.001083810174 
0.002742644317 
0.001275694532 
4.599451184e-05 
0.0005381263085 
0.006490023454 
0.001037204908 
0.0004270660871 
0.0006085295101 
4.642369698e-05 