# vtk DataFile Version 3.0
MOAB 4.9.0
ASCII
DATASET UNSTRUCTURED_GRID
POINTS 2025 double
0 0.5 0.5
5 0.5 0.5
0.2083333333 0.5 0.5
0.4166666667 0.5 0.5
0.625 0.5 0.5
0.8333333333 0.5 0.5
1.041666667 0.5 0.5
1.25 0.5 0.5
1.458333333 0.5 0.5
1.666666667 0.5 0.5
1.875 0.5 0.5
2.083333333 0.5 0.5
2.291666667 0.5 0.5
2.5 0.5 0.5
2.708333333 0.5 0.5
2.916666667 0.5 0.5
3.125 0.5 0.5
3.333333333 0.5 0.5
3.541666667 0.5 0.5
3.75 0.5 0.5
3.958333333 0.5 0.5
4.166666667 0.5 0.5
4.375 0.5 0.5
4.583333333 0.5 0.5
4.791666667 0.5 0.5
5 0.5 -0.5
5 0.5 -0.375
5 0.5 -0.25
5 0.5 -0.125
5 0.5 0
5 0.5 0.125
5 0.5 0.25
5 0.5 0.375
5 -0.5 0.5
5 0.375 0.5
5 0.25 0.5
5 0.125 0.5
5 0 0.5
5 -0.125 0.5
5 -0.25 0.5
5 -0.375 0.5
0 -0.5 0.5
0 -0.375 0.5
0 -0.25 0.5
0 -0.125 0.5
0 0 0.5
0 0.125 0.5
0 0.25 0.5
0 0.375 0.5
0 0.5 -0.5
0 0.5 0.375
0 0.5 0.25
0 0.5 0.125
0 0.5 0
0 0.5 -0.125
0 0.5 -0.25
0 0.5 -0.375
0 -0.5 -0.5
0 0.375 -0.5
0 0.25 -0.5
0 0.125 -0.5
0 0 -0.5
0 -0.125 -0.5
0 -0.25 -0.5
0 -0.375 -0.5
0 -0.5 -0.375
0 -0.5 -0.25
0 -0.5 -0.125
0 -0.5 0
0 -0.5 0.125
0 -0.5 0.25
0 -0.5 0.375
0 -0.375 0.375
0 -0.25 0.375
0 -0.125 0.375
0 0 0.375
0 0.125 0.375
0 0.25 0.375
0 0.375 0.375
0 -0.375 0.25
0 -0.25 0.25
0 -0.125 0.25
0 0 0.25
0 0.125 0.25
0 0.25 0.25
0 0.375 0.25
0 -0.375 0.125
0 -0.25 0.125
0 -0.125 0.125
0 0 0.125
0 0.125 0.125
0 0.25 0.125
0 0.375 0.125
0 -0.375 0
0 -0.25 0
0 -0.125 0
0 0 0
0 0.125 0
0 0.25 0
0 0.375 0
0 -0.375 -0.125
0 -0.25 -0.125
0 -0.125 -0.125
0 0 -0.125
0 0.125 -0.125
0 0.25 -0.125
0 0.375 -0.125
0 -0.375 -0.25
0 -0.25 -0.25
0 -0.125 -0.25
0 0 -0.25
0 0.125 -0.25
0 0.25 -0.25
0 0.375 -0.25
0 -0.375 -0.375
0 -0.25 -0.375
0 -0.125 -0.375
0 0 -0.375
0 0.125 -0.375
0 0.25 -0.375
0 0.375 -0.375
5 -0.5 -0.5
0.2083333333 -0.5 -0.5
0.4166666667 -0.5 -0.5
0.625 -0.5 -0.5
0.8333333333 -0.5 -0.5
1.041666667 -0.5 -0.5
1.25 -0.5 -0.5
1.458333333 -0.5 -0.5
1.666666667 -0.5 -0.5
1.875 -0.5 -0.5
2.083333333 -0.5 -0.5
2.291666667 -0.5 -0.5
2.5 -0.5 -0.5
2.708333333 -0.5 -0.5
2.916666667 -0.5 -0.5
3.125 -0.5 -0.5
3.333333333 -0.5 -0.5
3.541666667 -0.5 -0.5
3.75 -0.5 -0.5
3.958333333 -0.5 -0.5
4.166666667 -0.5 -0.5
4.375 -0.5 -0.5
4.583333333 -0.5 -0.5
4.791666667 -0.5 -0.5
5 -0.5 0.375
5 -0.5 0.25
5 -0.5 0.125
5 -0.5 0
5 -0.5 -0.125
5 -0.5 -0.25
5 -0.5 -0.375
4.791666667 -0.5 0.5
4.583333333 -0.5 0.5
4.375 -0.5 0.5
4.166666667 -0.5 0.5
3.958333333 -0.5 0.5
3.75 -0.5 0.5
3.541666667 -0.5 0.5
3.333333333 -0.5 0.5
3.125 -0.5 0.5
2.916666667 -0.5 0.5
2.708333333 -0.5 0.5
2.5 -0.5 0.5
2.291666667 -0.5 0.5
2.083333333 -0.5 0.5
1.875 -0.5 0.5
1.666666667 -0.5 0.5
1.458333333 -0.5 0.5
1.25 -0.5 0.5
1.041666667 -0.5 0.5
0.8333333333 -0.5 0.5
0.625 -0.5 0.5
0.4166666667 -0.5 0.5
0.2083333333 -0.5 0.5
0.2083333333 -0.5 -0.375
0.4166666667 -0.5 -0.375
0.625 -0.5 -0.375
0.8333333333 -0.5 -0.375
1.041666667 -0.5 -0.375
1.25 -0.5 -0.375
1.458333333 -0.5 -0.375
1.666666667 -0.5 -0.375
1.875 -0.5 -0.375
2.083333333 -0.5 -0.375
2.291666667 -0.5 -0.375
2.5 -0.5 -0.375
2.708333333 -0.5 -0.375
2.916666667 -0.5 -0.375
3.125 -0.5 -0.375
3.333333333 -0.5 -0.375
3.541666667 -0.5 -0.375
3.75 -0.5 -0.375
3.958333333 -0.5 -0.375
4.166666667 -0.5 -0.375
4.375 -0.5 -0.375
4.583333333 -0.5 -0.375
4.791666667 -0.5 -0.375
0.2083333333 -0.5 -0.25
0.4166666667 -0.5 -0.25
0.625 -0.5 -0.25
0.8333333333 -0.5 -0.25
1.041666667 -0.5 -0.25
1.25 -0.5 -0.25
1.458333333 -0.5 -0.25
1.666666667 -0.5 -0.25
1.875 -0.5 -0.25
2.083333333 -0.5 -0.25
2.291666667 -0.5 -0.25
2.5 -0.5 -0.25
2.708333333 -0.5 -0.25
2.916666667 -0.5 -0.25
3.125 -0.5 -0.25
3.333333333 -0.5 -0.25
3.541666667 -0.5 -0.25
3.75 -0.5 -0.25
3.958333333 -0.5 -0.25
4.166666667 -0.5 -0.25
4.375 -0.5 -0.25
4.583333333 -0.5 -0.25
4.791666667 -0.5 -0.25
0.2083333333 -0.5 -0.125
0.4166666667 -0.5 -0.125
0.625 -0.5 -0.125
0.8333333333 -0.5 -0.125
1.041666667 -0.5 -0.125
1.25 -0.5 -0.125
1.458333333 -0.5 -0.125
1.666666667 -0.5 -0.125
1.875 -0.5 -0.125
2.083333333 -0.5 -0.125
2.291666667 -0.5 -0.125
2.5 -0.5 -0.125
2.708333333 -0.5 -0.125
2.916666667 -0.5 -0.125
3.125 -0.5 -0.125
3.333333333 -0.5 -0.125
3.541666667 -0.5 -0.125
3.75 -0.5 -0.125
3.958333333 -0.5 -0.125
4.166666667 -0.5 -0.125
4.375 -0.5 -0.125
4.583333333 -0.5 -0.125
4.791666667 -0.5 -0.125
0.2083333333 -0.5 0
0.4166666667 -0.5 0
0.625 -0.5 0
0.8333333333 -0.5 0
1.041666667 -0.5 0
1.25 -0.5 0
1.458333333 -0.5 0
1.666666667 -0.5 0
1.875 -0.5 0
2.083333333 -0.5 0
2.291666667 -0.5 0
2.5 -0.5 0
2.708333333 -0.5 0
2.916666667 -0.5 0
3.125 -0.5 0
3.333333333 -0.5 0
3.541666667 -0.5 0
3.75 -0.5 0
3.958333333 -0.5 0
4.166666667 -0.5 0
4.375 -0.5 0
4.583333333 -0.5 0
4.791666667 -0.5 0
0.2083333333 -0.5 0.125
0.4166666667 -0.5 0.125
0.625 -0.5 0.125
0.8333333333 -0.5 0.125
1.041666667 -0.5 0.125
1.25 -0.5 0.125
1.458333333 -0.5 0.125
1.666666667 -0.5 0.125
1.875 -0.5 0.125
2.083333333 -0.5 0.125
2.291666667 -0.5 0.125
2.5 -0.5 0.125
2.708333333 -0.5 0.125
2.916666667 -0.5 0.125
3.125 -0.5 0.125
3.333333333 -0.5 0.125
3.541666667 -0.5 0.125
3.75 -0.5 0.125
3.958333333 -0.5 0.125
4.166666667 -0.5 0.125
4.375 -0.5 0.125
4.583333333 -0.5 0.125
4.791666667 -0.5 0.125
0.2083333333 -0.5 0.25
0.4166666667 -0.5 0.25
0.625 -0.5 0.25
0.8333333333 -0.5 0.25
1.041666667 -0.5 0.25
1.25 -0.5 0.25
1.458333333 -0.5 0.25
1.666666667 -0.5 0.25
1.875 -0.5 0.25
2.083333333 -0.5 0.25
2.291666667 -0.5 0.25
2.5 -0.5 0.25
2.708333333 -0.5 0.25
2.916666667 -0.5 0.25
3.125 -0.5 0.25
3.333333333 -0.5 0.25
3.541666667 -0.5 0.25
3.75 -0.5 0.25
3.958333333 -0.5 0.25
4.166666667 -0.5 0.25
4.375 -0.5 0.25
4.583333333 -0.5 0.25
4.791666667 -0.5 0.25
0.2083333333 -0.5 0.375
0.4166666667 -0.5 0.375
0.625 -0.5 0.375
0.8333333333 -0.5 0.375
1.041666667 -0.5 0.375
1.25 -0.5 0.375
1.458333333 -0.5 0.375
1.666666667 -0.5 0.375
1.875 -0.5 0.375
2.083333333 -0.5 0.375
2.291666667 -0.5 0.375
2.5 -0.5 0.375
2.708333333 -0.5 0.375
2.916666667 -0.5 0.375
3.125 -0.5 0.375
3.333333333 -0.5 0.375
3.541666667 -0.5 0.375
3.75 -0.5 0.375
3.958333333 -0.5 0.375
4.166666667 -0.5 0.375
4.375 -0.5 0.375
4.583333333 -0.5 0.375
4.791666667 -0.5 0.375
4.791666667 0.5 -0.5
4.583333333 0.5 -0.5
4.375 0.5 -0.5
4.166666667 0.5 -0.5
3.958333333 0.5 -0.5
3.75 0.5 -0.5
3.541666667 0.5 -0.5
3.333333333 0.5 -0.5
3.125 0.5 -0.5
2.916666667 0.5 -0.5
2.708333333 0.5 -0.5
2.5 0.5 -0.5
2.291666667 0.5 -0.5
2.083333333 0.5 -0.5
1.875 0.5 -0.5
1.666666667 0.5 -0.5
1.458333333 0.5 -0.5
1.25 0.5 -0.5
1.041666667 0.5 -0.5
0.8333333333 0.5 -0.5
0.625 0.5 -0.5
0.4166666667 0.5 -0.5
0.2083333333 0.5 -0.5
5 -0.375 -0.5
5 -0.25 -0.5
5 -0.125 -0.5
5 0 -0.5
5 0.125 -0.5
5 0.25 -0.5
5 0.375 -0.5
0.2083333333 0.375 -0.5
0.4166666667 0.375 -0.5
0.625 0.375 -0.5
0.8333333333 0.375 -0.5
1.041666667 0.375 -0.5
1.25 0.375 -0.5
1.458333333 0.375 -0.5
1.666666667 0.375 -0.5
1.875 0.375 -0.5
2.083333333 0.375 -0.5
2.291666667 0.375 -0.5
2.5 0.375 -0.5
2.708333333 0.375 -0.5
2.916666667 0.375 -0.5
3.125 0.375 -0.5
3.333333333 0.375 -0.5
3.541666667 0.375 -0.5
3.75 0.375 -0.5
3.958333333 0.375 -0.5
4.166666667 0.375 -0.5
4.375 0.375 -0.5
4.583333333 0.375 -0.5
4.791666667 0.375 -0.5
0.2083333333 0.25 -0.5
0.4166666667 0.25 -0.5
0.625 0.25 -0.5
0.8333333333 0.25 -0.5
1.041666667 0.25 -0.5
1.25 0.25 -0.5
1.458333333 0.25 -0.5
1.666666667 0.25 -0.5
1.875 0.25 -0.5
2.083333333 0.25 -0.5
2.291666667 0.25 -0.5
2.5 0.25 -0.5
2.708333333 0.25 -0.5
2.916666667 0.25 -0.5
3.125 0.25 -0.5
3.333333333 0.25 -0.5
3.541666667 0.25 -0.5
3.75 0.25 -0.5
3.958333333 0.25 -0.5
4.166666667 0.25 -0.5
4.375 0.25 -0.5
4.583333333 0.25 -0.5
4.791666667 0.25 -0.5
0.2083333333 0.125 -0.5
0.4166666667 0.125 -0.5
0.625 0.125 -0.5
0.8333333333 0.125 -0.5
1.041666667 0.125 -0.5
1.25 0.125 -0.5
1.458333333 0.125 -0.5
1.666666667 0.125 -0.5
1.875 0.125 -0.5
2.083333333 0.125 -0.5
2.291666667 0.125 -0.5
2.5 0.125 -0.5
2.708333333 0.125 -0.5
2.916666667 0.125 -0.5
3.125 0.125 -0.5
3.333333333 0.125 -0.5
3.541666667 0.125 -0.5
3.75 0.125 -0.5
3.958333333 0.125 -0.5
4.166666667 0.125 -0.5
4.375 0.125 -0.5
4.583333333 0.125 -0.5
4.791666667 0.125 -0.5
0.2083333333 0 -0.5
0.4166666667 0 -0.5
0.625 0 -0.5
0.8333333333 0 -0.5
1.041666667 0 -0.5
1.25 0 -0.5
1.458333333 0 -0.5
1.666666667 0 -0.5
1.875 0 -0.5
2.083333333 0 -0.5
2.291666667 0 -0.5
2.5 0 -0.5
2.708333333 0 -0.5
2.916666667 0 -0.5
3.125 0 -0.5
3.333333333 0 -0.5
3.541666667 0 -0.5
3.75 0 -0.5
3.958333333 0 -0.5
4.166666667 0 -0.5
4.375 0 -0.5
4.583333333 0 -0.5
4.791666667 0 -0.5
0.2083333333 -0.125 -0.5
0.4166666667 -0.125 -0.5
0.625 -0.125 -0.5
0.8333333333 -0.125 -0.5
1.041666667 -0.125 -0.5
1.25 -0.125 -0.5
1.458333333 -0.125 -0.5
1.666666667 -0.125 -0.5
1.875 -0.125 -0.5
2.083333333 -0.125 -0.5
2.291666667 -0.125 -0.5
2.5 -0.125 -0.5
2.708333333 -0.125 -0.5
2.916666667 -0.125 -0.5
3.125 -0.125 -0.5
3.333333333 -0.125 -0.5
3.541666667 -0.125 -0.5
3.75 -0.125 -0.5
3.958333333 -0.125 -0.5
4.166666667 -0.125 -0.5
4.375 -0.125 -0.5
4.583333333 -0.125 -0.5
4.791666667 -0.125 -0.5
0.2083333333 -0.25 -0.5
0.4166666667 -0.25 -0.5
0.625 -0.25 -0.5
0.8333333333 -0.25 -0.5
1.041666667 -0.25 -0.5
1.25 -0.25 -0.5
1.458333333 -0.25 -0.5
1.666666667 -0.25 -0.5
1.875 -0.25 -0.5
2.083333333 -0.25 -0.5
2.291666667 -0.25 -0.5
2.5 -0.25 -0.5
2.708333333 -0.25 -0.5
2.916666667 -0.25 -0.5
3.125 -0.25 -0.5
3.333333333 -0.25 -0.5
3.541666667 -0.25 -0.5
3.75 -0.25 -0.5
3.958333333 -0.25 -0.5
4.166666667 -0.25 -0.5
4.375 -0.25 -0.5
4.583333333 -0.25 -0.5
4.791666667 -0.25 -0.5
0.2083333333 -0.375 -0.5
0.4166666667 -0.375 -0.5
0.625 -0.375 -0.5
0.8333333333 -0.375 -0.5
1.041666667 -0.375 -0.5
1.25 -0.375 -0.5
1.458333333 -0.375 -0.5
1.666666667 -0.375 -0.5
1.875 -0.375 -0.5
2.083333333 -0.375 -0.5
2.291666667 -0.375 -0.5
2.5 -0.375 -0.5
2.708333333 -0.375 -0.5
2.916666667 -0.375 -0.5
3.125 -0.375 -0.5
3.333333333 -0.375 -0.5
3.541666667 -0.375 -0.5
3.75 -0.375 -0.5
3.958333333 -0.375 -0.5
4.166666667 -0.375 -0.5
4.375 -0.375 -0.5
4.583333333 -0.375 -0.5
4.791666667 -0.375 -0.5
5 0.375 0.375
5 0.25 0.375
5 0.125 0.375
5 0 0.375
5 -0.125 0.375
[...]
POINT_DATA 2025
SCALARS KDE_TALLY_TAG double 1
LOOKUP_TABLE default
0.2445302451 
0.2445302451 
0.2445302451 
0.2445302451 
0.2445302451 
0.2445302451 
0.2445302451 
0.2445302451 
0.2445302451 
0.2445302451 
0.2445302451 
0.2445302451 
0.2445302451 
0.2445302451 
0.2445302451 
0.2445302451 
0.2445302451 
0.2445302451 
0.2445302451 
0.2445302451 
0.2445302451 
0.2445302451 
0.2445302451 
0.2445302451 
0.2445302451 
0.2463042293 
0.264459669 
0.2434660749 
0.2435555088 
0.2555078563 
0.2372838865 
0.2437945066 
0.2618105411 
0.2382570175 
0.2460964783 
0.2327884843 
0.2504430412 
0.2535825674 
0.2306117994 
0.2619720563 
0.2215098209 
0.2382570175 
0.2215098209 
0.2619720563 
0.2306117994 
0.2535825674 
0.2504430412 
0.2327884843 
0.2460964783 
0.2463042293 
0.2618105411 
0.2437945066 
0.2372838865 
0.2555078563 
0.2435555088 
0.2434660749 
0.264459669 
0.2729787122 
0.2202558324 
0.2556099175 
0.2497866843 
0.2381650474 
0.2686044081 
0.2412075934 
0.2711429539 
0.2275102364 
0.2420156708 
0.2318271528 
0.2388163683 
0.2576210768 
0.2464257468 
0.2564958633 
0.2518920333 
0.235821079 
0.2760255849 
0.235742732 
0.2637725735 
0.2804645427 
0.2543462929 
0.2454414586 
0.2341372391 
0.2339960531 
0.221944637 
0.2552754086 
0.2461513105 
0.2538346913 
0.2511161778 
0.245037996 
0.2297687771 
0.2702679427 
0.2239217169 
0.2577002639 
0.2502440354 
0.2346305124 
0.2347128904 
0.257811943 
0.2337576445 
0.2522331212 
0.2273853632 
0.248303466 
0.2542875286 
0.2685851276 
0.2311596683 
0.233991035 
0.2604326535 
0.252170295 
0.2585693104 
0.2562096511 
0.2471440713 
0.2542941155 
0.2450342706 
0.2393544967 
0.2401695344 
0.2788789135 
0.2416759869 
0.2749644805 
0.2587829556 
0.2321490316 
0.243801189 
0.2440090285 
0.2422444065 
0.2729787122 
0.2729787122 
0.2729787122 
0.2729787122 
0.2729787122 
0.2729787122 
0.2729787122 
0.2729787122 
0.2729787122 
0.2729787122 
0.2729787122 
0.2729787122 
0.2729787122 
0.2729787122 
0.2729787122 
0.2729787122 
0.2729787122 
0.2729787122 
0.2729787122 
0.2729787122 
0.2729787122 
0.2729787122 
0.2729787122 
0.2729787122 
0.2564958633 
0.2464257468 
0.2576210768 
0.2388163683 
0.2318271528 
0.2420156708 
0.2275102364 
0.2382570175 
0.2382570175 
0.2382570175 
0.2382570175 
0.2382570175 
0.2382570175 
0.2382570175 
0.2382570175 
0.2382570175 
0.2382570175 
0.2382570175 
0.2382570175 
0.2382570175 
0.2382570175 
0.2382570175 
0.2382570175 
0.2382570175 
0.2382570175 
0.2382570175 
0.2382570175 
0.2382570175 
0.2382570175 
0.2382570175 
0.2275102364 
0.2275102364 
0.2275102364 
0.2275102364 
0.2275102364 
0.2275102364 
0.2275102364 
0.2275102364 
0.2275102364 
0.2275102364 
0.2275102364 
0.2275102364 
0.2275102364 
0.2275102364 
0.2275102364 
0.2275102364 
0.2275102364 
0.2275102364 
0.2275102364 
0.2275102364 
0.2275102364 
0.2275102364 
0.2275102364 
0.2420156708 
0.2420156708 
0.2420156708 
0.2420156708 
0.2420156708 
0.2420156708 
0.2420156708 
0.2420156708 
0.2420156708 
0.2420156708 
0.2420156708 
0.2420156708 
0.2420156708 
0.2420156708 
0.2420156708 
0.2420156708 
0.2420156708 
0.2420156708 
0.2420156708 
0.2420156708 
0.2420156708 
0.2420156708 
0.2420156708 
0.2318271528 
0.2318271528 
0.2318271528 
0.2318271528 
0.2318271528 
0.2318271528 
0.2318271528 
0.2318271528 
0.2318271528 
0.2318271528 
0.2318271528 
0.2318271528 
0.2318271528 
0.2318271528 
0.2318271528 
0.2318271528 
0.2318271528 
0.2318271528 
0.2318271528 
0.2318271528 
0.2318271528 
0.2318271528 
0.2318271528 
0.2388163683 
0.2388163683 
0.2388163683 
0.2388163683 
0.2388163683 
0.2388163683 
0.2388163683 
0.2388163683 
0.2388163683 
0.2388163683 
0.2388163683 
0.2388163683 
0.2388163683 
0.2388163683 
0.2388163683 
0.2388163683 
0.2388163683 
0.2388163683 
0.2388163683 
0.2388163683 
0.2388163683 
0.2388163683 
0.2388163683 
0.2576210768 
0.2576210768 
0.2576210768 
0.2576210768 
0.2576210768 
0.2576210768 
0.2576210768 
0.2576210768 
0.2576210768 
0.2576210768 
0.2576210768 
0.2576210768 
0.2576210768 
0.2576210768 
0.2576210768 
0.2576210768 
0.2576210768 
0.2576210768 
0.2576210768 
0.2576210768 
0.2576210768 
0.2576210768 
0.2576210768 
0.2464257468 
0.2464257468 
0.2464257468 
0.2464257468 
0.2464257468 
0.2464257468 
0.2464257468 
0.2464257468 
0.2464257468 
0.2464257468 
0.2464257468 
0.2464257468 
0.2464257468 
0.2464257468 
0.2464257468 
0.2464257468 
0.2464257468 
0.2464257468 
0.2464257468 
0.2464257468 
0.2464257468 
0.2464257468 
0.2464257468 
0.2564958633 
0.2564958633 
0.2564958633 
0.2564958633 
0.2564958633 
0.2564958633 
0.2564958633 
0.2564958633 
0.2564958633 
0.2564958633 
0.2564958633 
0.2564958633 
0.2564958633 
0.2564958633 
0.2564958633 
0.2564958633 
0.2564958633 
0.2564958633 
0.2564958633 
0.2564958633 
0.2564958633 
0.2564958633 
0.2564958633 
0.2463042293 
0.2463042293 
0.2463042293 
0.2463042293 
0.2463042293 
0.2463042293 
0.2463042293 
0.2463042293 
0.2463042293 
0.2463042293 
0.2463042293 
0.2463042293 
0.2463042293 
0.2463042293 
0.2463042293 
0.2463042293 
0.2463042293 
0.2463042293 
0.2463042293 
0.2463042293 
0.2463042293 
0.2463042293 
0.2463042293 
0.2711429539 
0.2412075934 
0.2686044081 
0.2381650474 
0.2497866843 
0.2556099175 
0.2202558324 
0.2202558324 
0.2202558324 
0.2202558324 
0.2202558324 
0.2202558324 
0.2202558324 
0.2202558324 
0.2202558324 
0.2202558324 
0.2202558324 
0.2202558324 
0.2202558324 
0.2202558324 
0.2202558324 
0.2202558324 
0.2202558324 
0.2202558324 
0.2202558324 
0.2202558324 
0.2202558324 
0.2202558324 
0.2202558324 
0.2202558324 
0.2556099175 
0.2556099175 
0.2556099175 
0.2556099175 
0.2556099175 
0.2556099175 
0.2556099175 
0.2556099175 
0.2556099175 
0.2556099175 
0.2556099175 
0.2556099175 
0.2556099175 
0.2556099175 
0.2556099175 
0.2556099175 
0.2556099175 
0.2556099175 
0.2556099175 
0.2556099175 
0.2556099175 
0.2556099175 
0.2556099175 
0.2497866843 
0.2497866843 
0.2497866843 
0.2497866843 
0.2497866843 
0.2497866843 
0.2497866843 
0.2497866843 
0.2497866843 
0.2497866843 
0.2497866843 
0.2497866843 
0.2497866843 
0.2497866843 
0.2497866843 
0.2497866843 
0.2497866843 
0.2497866843 
0.2497866843 
0.2497866843 
0.2497866843 
0.2497866843 
0.2497866843 
0.2381650474 
0.2381650474 
0.2381650474 
0.2381650474 
0.2381650474 
0.2381650474 
0.2381650474 
0.2381650474 
0.2381650474 
0.2381650474 
0.2381650474 
0.2381650474 
0.2381650474 
0.2381650474 
0.2381650474 
0.2381650474 
0.2381650474 
0.2381650474 
0.2381650474 
0.2381650474 
0.2381650474 
0.2381650474 
0.2381650474 
0.2686044081 
0.2686044081 
0.2686044081 
0.2686044081 
0.2686044081 
0.2686044081 
0.2686044081 
0.2686044081 
0.2686044081 
0.2686044081 
0.2686044081 
0.2686044081 
0.2686044081 
0.2686044081 
0.2686044081 
0.2686044081 
0.2686044081 
0.2686044081 
0.2686044081 
0.2686044081 
0.2686044081 
0.2686044081 
0.2686044081 
0.2412075934 
0.2412075934 
0.2412075934 
0.2412075934 
0.2412075934 
0.2412075934 
0.2412075934 
0.2412075934 
0.2412075934 
0.2412075934 
0.2412075934 
0.2412075934 
0.2412075934 
0.2412075934 
0.2412075934 
0.2412075934 
0.2412075934 
0.2412075934 
0.2412075934 
0.2412075934 
0.2412075934 
0.2412075934 
0.2412075934 
0.2711429539 
0.2711429539 
0.2711429539 
0.2711429539 
0.2711429539 
0.2711429539 
0.2711429539 
0.2711429539 
0.2711429539 
0.2711429539 
0.2711429539 
0.2711429539 
0.2711429539 
0.2711429539 
0.2711429539 
0.2711429539 
0.2711429539 
0.2711429539 
0.2711429539 
0.2711429539 
0.2711429539 
0.2711429539 
0.2711429539 
0.2543462929 
0.2804645427 
0.2637725735 
0.235742732 
0.2760255849 
0.235821079 
0.2518920333 
0.2538346913 
0.2461513105 
0.2552754086 
0.221944637 
0.2339960531 
0.2341372391 
0.2454414586 
0.2502440354 
0.2577002639 
0.2239217169 
0.2702679427 
0.2297687771 
0.245037996 
0.2511161778 
0.248303466 
0.2273853632 
0.2522331212 
0.2337576445 
0.257811943 
0.2347128904 
0.2346305124 
0.2585693104 
0.252170295 
0.2604326535 
0.233991035 
0.2311596683 
0.2685851276 
0.2542875286 
0.2788789135 
0.2401695344 
0.2393544967 
0.2450342706 
0.2542941155 
0.2471440713 
0.2562096511 
0.2422444065 
0.2440090285 
0.243801189 
0.2321490316 
0.2587829556 
0.2749644805 
0.2416759869 
0.2215098209 
0.2215098209 
0.2215098209 
0.2215098209 
0.2215098209 
0.2215098209 
0.2215098209 
0.2215098209 
0.2215098209 
0.2215098209 
0.2215098209 
0.2215098209 
0.2215098209 
0.2215098209 
0.2215098209 
0.2215098209 
0.2215098209 
0.2215098209 
0.2215098209 
0.2215098209 
0.2215098209 
0.2215098209 
0.2215098209 
0.2619720563 
0.2619720563 
0.2619720563 
0.2619720563 
0.2619720563 
0.2619720563 
0.2619720563 
0.2619720563 
0.2619720563 
0.2619720563 
0.2619720563 
0.2619720563 
0.2619720563 
0.2619720563 
0.2619720563 
0.2619720563 
0.2619720563 
0.2619720563 
0.2619720563 
0.2619720563 
0.2619720563 
0.2619720563 
0.2619720563 
0.2306117994 
0.2306117994 
0.2306117994 
0.2306117994 
0.2306117994 
0.2306117994 
0.2306117994 
0.2306117994 
0.2306117994 
0.2306117994 
0.2306117994 
0.2306117994 
0.2306117994 
0.2306117994 
0.2306117994 
0.2306117994 
0.2306117994 
0.2306117994 
0.2306117994 
0.2306117994 
0.2306117994 
0.2306117994 
0.2306117994 
0.2535825674 
0.2535825674 
0.2535825674 
0.2535825674 
0.2535825674 
0.2535825674 
0.2535825674 
0.2535825674 
0.2535825674 
0.2535825674 
0.2535825674 
0.2535825674 
0.2535825674 
0.2535825674 
0.2535825674 
0.2535825674 
0.2535825674 
0.2535825674 
0.2535825674 
0.2535825674 
0.2535825674 
0.2535825674 
0.2535825674 
0.2504430412 
0.2504430412 
0.2504430412 
0.2504430412 
0.2504430412 
0.2504430412 
0.2504430412 
0.2504430412 
0.2504430412 
0.2504430412 
0.2504430412 
0.2504430412 
0.2504430412 
0.2504430412 
0.2504430412 
0.2504430412 
0.2504430412 
0.2504430412 
0.2504430412 
0.2504430412 
0.2504430412 
0.2504430412 
0.2504430412 
0.2327884843 
0.2327884843 
0.2327884843 
0.2327884843 
0.2327884843 
0.2327884843 
0.2327884843 
0.2327884843 
0.2327884843 
0.2327884843 
0.2327884843 
0.2327884843 
0.2327884843 
0.2327884843 
0.2327884843 
0.2327884843 
0.2327884843 
0.2327884843 
0.2327884843 
0.2327884843 
0.2327884843 
0.2327884843 
0.2327884843 
0.2460964783 
0.2460964783 
0.2460964783 
0.2460964783 
0.2460964783 
0.2460964783 
0.2460964783 
0.2460964783 
0.2460964783 
0.2460964783 
0.2460964783 
0.2460964783 
0.2460964783 
0.2460964783 
0.2460964783 
0.2460964783 
0.2460964783 
0.2460964783 
0.2460964783 
0.2460964783 
0.2460964783 
0.2460964783 
0.2460964783 
0.2618105411 
0.2618105411 
0.2618105411 
0.2618105411 
0.2618105411 
0.2618105411 
0.2618105411 
0.2618105411 
0.2618105411 
0.2618105411 
0.2618105411 
0.2618105411 
0.2618105411 
0.2618105411 
0.2618105411 
0.2618105411 
0.2618105411 
0.2618105411 
0.2618105411 
0.2618105411 
0.2618105411 
0.2618105411 
0.2618105411 
0.2437945066 
0.2437945066 
0.2437945066 
0.2437945066 
0.2437945066 
0.2437945066 
0.2437945066 
0.2437945066 
0.2437945066 
0.2437945066 
0.2437945066 
0.2437945066 
0.2437945066 
0.2437945066 
0.2437945066 
0.2437945066 
0.2437945066 
0.2437945066 
0.2437945066 
0.2437945066 
0.2437945066 
0.2437945066 
0.2437945066 
0.2372838865 
0.2372838865 
0.2372838865 
0.2372838865 
0.2372838865 
0.2372838865 
0.2372838865 
0.2372838865 
0.2372838865 
0.2372838865 
0.2372838865 
0.2372838865 
0.2372838865 
0.2372838865 
0.2372838865 
0.2372838865 
0.2372838865 
0.2372838865 
0.2372838865 
0.2372838865 
0.2372838865 
0.2372838865 
0.2372838865 
0.2555078563 
0.2555078563 
0.2555078563 
0.2555078563 
0.2555078563 
0.2555078563 
0.2555078563 
0.2555078563 
0.2555078563 
0.2555078563 
0.2555078563 
0.2555078563 
0.2555078563 
0.2555078563 
0.2555078563 
0.2555078563 
0.2555078563 
0.2555078563 
0.2555078563 
0.2555078563 
0.2555078563 
0.2555078563 
0.2555078563 
0.2435555088 
0.2435555088 
0.2435555088 
0.2435555088 
0.2435555088 
0.2435555088 
0.2435555088 
0.2435555088 
0.2435555088 
0.2435555088 
0.2435555088 
0.2435555088 
0.2435555088 
0.2435555088 
0.2435555088 
0.2435555088 
0.2435555088 
0.2435555088 
0.2435555088 
0.2435555088 
0.2435555088 
0.2435555088 
0.2435555088 
0.2434660749 
0.2434660749 
0.2434660749 
0.2434660749 
0.2434660749 
0.2434660749 
0.2434660749 
0.2434660749 
0.2434660749 
0.2434660749 
0.2434660749 
0.2434660749 
0.2434660749 
0.2434660749 
0.2434660749 
0.2434660749 
0.2434660749 
0.2434660749 
0.2434660749 
0.2434660749 
0.2434660749 
0.2434660749 
0.2434660749 
0.264459669 
0.264459669 
0.264459669 
0.264459669 
0.264459669 
0.264459669 
0.264459669 
0.264459669 
0.264459669 
0.264459669 
0.264459669 
0.264459669 
0.264459669 
0.264459669 
0.264459669 
0.264459669 
0.264459669 
0.264459669 
0.264459669 
0.264459669 
0.264459669 
0.264459669 
0.264459669 
0.2416759869 
0.2416759869 
0.2416759869 
0.2416759869 
0.2416759869 
0.2416759869 
0.2416759869 
0.2416759869 
0.2416759869 
0.2416759869 
0.2416759869 
0.2416759869 
0.2416759869 
0.2416759869 
0.2416759869 
0.2416759869 
0.2416759869 
0.2416759869 
0.2416759869 
0.2416759869 
0.2416759869 
0.2416759869 
0.2416759869 
0.2749644805 
0.2749644805 
0.2749644805 
0.2749644805 
0.2749644805 
0.2749644805 
0.2749644805 
0.2749644805 
0.2749644805 
0.2749644805 
0.2749644805 
0.2749644805 
0.2749644805 
0.2749644805 
0.2749644805 
0.2749644805 
0.2749644805 
0.2749644805 
0.2749644805 
0.2749644805 
0.2749644805 
0.2749644805 
0.2749644805 
0.2587829556 
0.2587829556 
0.2587829556 
0.2587829556 
0.2587829556 
0.2587829556 
0.2587829556 
0.2587829556 
0.2587829556 
0.2587829556 
0.2587829556 
0.2587829556 
0.2587829556 
0.2587829556 
0.2587829556 
0.2587829556 
0.2587829556 
0.2587829556 
0.2587829556 
0.2587829556 
0.2587829556 
0.2587829556 
0.2587829556 
0.2321490316 
0.2321490316 
0.2321490316 
0.2321490316 
0.2321490316 
0.2321490316 
0.2321490316 
0.2321490316 
0.2321490316 
0.2321490316 
0.2321490316 
0.2321490316 
0.2321490316 
0.2321490316 
0.2321490316 
0.2321490316 
0.2321490316 
0.2321490316 
0.2321490316 
0.2321490316 
0.2321490316 
0.2321490316 
0.2321490316 
0.243801189 
0.243801189 
0.243801189 
0.243801189 
0.243801189 
0.243801189 
0.243801189 
0.243801189 
0.243801189 
0.243801189 
0.243801189 
0.243801189 
0.243801189 
0.243801189 
0.243801189 
0.243801189 
0.243801189 
0.243801189 
0.243801189 
0.243801189 
0.243801189 
0.243801189 
0.243801189 
0.2440090285 
0.2440090285 
0.2440090285 
0.2440090285 
0.2440090285 
0.2440090285 
0.2440090285 
0.2440090285 
0.2440090285 
0.2440090285 
0.2440090285 
0.2440090285 
0.2440090285 
0.2440090285 
0.2440090285 
0.2440090285 
0.2440090285 
0.2440090285 
0.2440090285 
0.2440090285 
0.2440090285 
0.2440090285 
0.2440090285 
0.2422444065 
0.2422444065 
0.2422444065 
0.2422444065 
0.2422444065 
0.2422444065 
0.2422444065 
0.2422444065 
0.2422444065 
0.2422444065 
0.2422444065 
0.2422444065 
0.2422444065 
0.2422444065 
0.2422444065 
0.2422444065 
0.2422444065 
0.2422444065 
0.2422444065 
0.2422444065 
0.2422444065 
0.2422444065 
0.2422444065 
0.2562096511 
0.2562096511 
0.2562096511 
0.2562096511 
0.2562096511 
0.2562096511 
0.2562096511 
0.2562096511 
0.2562096511 
0.2562096511 
0.2562096511 
0.2562096511 
0.2562096511 
0.2562096511 
0.2562096511 
0.2562096511 
0.2562096511 
0.2562096511 
0.2562096511 
0.2562096511 
0.2562096511 
0.2562096511 
0.2562096511 
0.2471440713 
0.2471440713 
0.2471440713 
0.2471440713 
0.2471440713 
0.2471440713 
0.2471440713 
0.2471440713 
0.2471440713 
0.2471440713 
0.2471440713 
0.2471440713 
0.2471440713 
0.2471440713 
0.2471440713 
0.2471440713 
0.2471440713 
0.2471440713 
0.2471440713 
0.2471440713 
0.2471440713 
0.2471440713 
0.2471440713 
0.2542941155 
0.2542941155 
0.2542941155 
0.2542941155 
0.2542941155 
0.2542941155 
0.2542941155 
0.2542941155 
0.2542941155 
0.2542941155 
0.2542941155 
0.2542941155 
0.2542941155 
0.2542941155 
0.2542941155 
0.2542941155 
0.2542941155 
0.2542941155 
0.2542941155 
0.2542941155 
0.2542941155 
0.2542941155 
0.2542941155 
0.2450342706 
0.2450342706 
0.2450342706 
0.2450342706 
0.2450342706 
0.2450342706 
0.2450342706 
0.2450342706 
0.2450342706 
0.2450342706 
0.2450342706 
0.2450342706 
0.2450342706 
0.2450342706 
0.2450342706 
0.2450342706 
0.2450342706 
0.2450342706 
0.2450342706 
0.2450342706 
0.2450342706 
0.2450342706 
0.2450342706 
0.2393544967 
0.2393544967 
0.2393544967 
0.2393544967 
0.2393544967 
0.2393544967 
0.2393544967 
0.2393544967 
0.2393544967 
0.2393544967 
0.2393544967 
0.2393544967 
0.2393544967 
0.2393544967 
0.2393544967 
0.2393544967 
0.2393544967 
0.2393544967 
0.2393544967 
0.2393544967 
0.2393544967 
0.2393544967 
0.2393544967 
0.2401695344 
0.2401695344 
0.2401695344 
0.2401695344 
0.2401695344 
0.2401695344 
0.2401695344 
0.2401695344 
0.2401695344 
0.2401695344 
0.2401695344 
0.2401695344 
0.2401695344 
0.2401695344 
0.2401695344 
0.2401695344 
0.2401695344 
0.2401695344 
0.2401695344 
0.2401695344 
0.2401695344 
0.2401695344 
0.2401695344 
0.2788789135 
0.2788789135 
0.2788789135 
0.2788789135 
0.2788789135 
0.2788789135 
0.2788789135 
0.2788789135 
0.2788789135 
0.2788789135 
0.2788789135 
0.2788789135 
0.2788789135 
0.2788789135 
0.2788789135 
0.2788789135 
0.2788789135 
0.2788789135 
0.2788789135 
0.2788789135 
0.2788789135 
0.2788789135 
0.2788789135 
0.2542875286 
0.2542875286 
0.2542875286 
0.2542875286 
0.2542875286 
0.2542875286 
0.2542875286 
0.2542875286 
0.2542875286 
0.2542875286 
0.2542875286 
0.2542875286 
0.2542875286 
0.2542875286 
0.2542875286 
0.2542875286 
0.2542875286 
0.2542875286 
0.2542875286 
0.2542875286 
0.2542875286 
0.2542875286 
0.2542875286 
0.2685851276 
0.2685851276 
0.2685851276 
0.2685851276 
0.2685851276 
0.2685851276 
0.2685851276 
0.2685851276 
0.2685851276 
0.2685851276 
0.2685851276 
0.2685851276 
0.2685851276 
0.2685851276 
0.2685851276 
0.2685851276 
0.2685851276 
0.2685851276 
0.2685851276 
0.2685851276 
0.2685851276 
0.2685851276 
0.2685851276 
0.2311596683 
0.2311596683 
0.2311596683 
0.2311596683 
0.2311596683 
0.2311596683 
0.2311596683 
0.2311596683 
0.2311596683 
0.2311596683 
0.2311596683 
0.2311596683 
0.2311596683 
0.2311596683 
0.2311596683 
0.2311596683 
0.2311596683 
0.2311596683 
0.2311596683 
0.2311596683 
0.2311596683 
0.2311596683 
0.2311596683 
0.233991035 
0.233991035 
0.233991035 
0.233991035 
0.233991035 
0.233991035 
0.233991035 
0.233991035 
0.233991035 
0.233991035 
0.233991035 
0.233991035 
0.233991035 
0.233991035 
0.233991035 
0.233991035 
0.233991035 
0.233991035 
0.233991035 
0.233991035 
0.233991035 
0.233991035 
0.233991035 
0.2604326535 
0.2604326535 
0.2604326535 
0.2604326535 
0.2604326535 
0.2604326535 
0.2604326535 
0.2604326535 
0.2604326535 
0.2604326535 
0.2604326535 
0.2604326535 
0.2604326535 
0.2604326535 
0.2604326535 
0.2604326535 
0.2604326535 
0.2604326535 
0.2604326535 
0.2604326535 
0.2604326535 
0.2604326535 
0.2604326535 
0.252170295 
0.252170295 
0.252170295 
0.252170295 
0.252170295 
0.252170295 
0.252170295 
0.252170295 
0.252170295 
0.252170295 
0.252170295 
0.252170295 
0.252170295 
0.252170295 
0.252170295 
0.252170295 
0.252170295 
0.252170295 
0.252170295 
0.252170295 
0.252170295 
0.252170295 
0.252170295 
0.2585693104 
0.2585693104 
0.2585693104 
0.2585693104 
0.2585693104 
0.2585693104 
0.2585693104 
0.2585693104 
0.2585693104 
0.2585693104 
0.2585693104 
0.2585693104 
0.2585693104 
0.2585693104 
0.2585693104 
0.2585693104 
0.2585693104 
0.2585693104 
0.2585693104 
0.2585693104 
0.2585693104 
0.2585693104 
0.2585693104 
0.2346305124 
0.2346305124 
0.2346305124 
0.2346305124 
0.2346305124 
0.2346305124 
0.2346305124 
0.2346305124 
0.2346305124 
0.2346305124 
0.2346305124 
0.2346305124 
0.2346305124 
0.2346305124 
0.2346305124 
0.2346305124 
0.2346305124 
0.2346305124 
0.2346305124 
0.2346305124 
0.2346305124 
0.2346305124 
0.2346305124 
0.2347128904 
0.2347128904 
0.2347128904 
0.2347128904 
0.2347128904 
0.2347128904 
0.2347128904 
0.2347128904 
0.2347128904 
0.2347128904 
0.2347128904 
0.2347128904 
0.2347128904 
0.2347128904 
0.2347128904 
0.2347128904 
0.2347128904 
0.2347128904 
0.2347128904 
0.2347128904 
0.2347128904 
0.2347128904 
0.2347128904 
0.257811943 
0.257811943 
0.257811943 
0.257811943 
0.257811943 