# vtk DataFile Version 3.0
MOAB 4.9.0
ASCII
DATASET UNSTRUCTURED_GRID
POINTS 280 double
3.25 4.329780281e-17 0.5
3.25 0.1913417162 0.4619397663
3.25 0.3535533906 0.3535533906
3.25 0.4619397663 0.1913417162
3.25 0.5 -1.268163283e-17
3.25 0.4619397663 -0.1913417162
3.25 0.3535533906 -0.3535533906
3.25 0.1913417162 -0.4619397663
3.25 1.793453715e-17 -0.5
3.25 -0.1913417162 -0.4619397663
3.25 -0.3535533906 -0.3535533906
3.25 -0.4619397663 -0.1913417162
3.25 -0.5 -4.855070712e-17
3.25 -0.4619397663 0.1913417162
3.25 -0.3535533906 0.3535533906
3.25 -0.1913417162 0.4619397663
4.25 -4.329780281e-17 0.5
4.25 -0.1913417162 0.4619397663
4.25 -0.3535533906 0.3535533906
4.25 -0.4619397663 0.1913417162
4.25 -0.5 -1.481306321e-16
4.25 -0.4619397663 -0.1913417162
4.25 -0.3535533906 -0.3535533906
4.25 -0.1913417162 -0.4619397663
4.25 -1.911257484e-16 -0.5
4.25 0.1913417162 -0.4619397663
4.25 0.3535533906 -0.3535533906
4.25 0.4619397663 -0.1913417162
4.25 0.5 -3.571909177e-16
4.25 0.4619397663 0.1913417162
4.25 0.3535533906 0.3535533906
4.25 0.1913417162 0.4619397663
3.75229658 0.4157303493 0.2777917865
3.752436713 0.4903917864 0.09754945338
3.752536895 0.4903935121 -0.0975407775
3.752540114 0.4157372936 -0.2777813937
3.752540521 0.2777887698 -0.4157323651
3.75254058 0.09754941354 -0.4903917943
3.752540644 -0.09754100763 -0.4903934663
3.752541001 -0.2777818287 -0.415737003
3.752543069 -0.4157330576 -0.2777877334
3.752554351 -0.4903924797 -0.09754596771
3.752612631 -0.490391399 0.09755140093
3.752659192 -0.4157383116 0.2777798702
3.752689743 -0.2777936628 0.4157290956
3.752359347 0.2778016478 0.4157237598
3.752563573 0.09755260587 0.4903911593
3.752712426 -0.09757971952 0.4903857648
3.919090351 -0.3535539394 0.3535528418
3.919082017 -0.4619418409 0.1913367076
3.918895725 -0.4999999999 -9.540688928e-06
3.918890366 -0.4619360485 -0.1913506914
3.918889718 -0.3535464012 -0.3535603799
3.918889643 -0.1913325285 -0.4619435718
3.918889631 9.972457277e-06 -0.4999999999
3.918889601 0.1913509782 -0.4619359297
3.918889373 0.3535606212 -0.3535461598
3.918887641 0.4619439922 -0.1913315137
3.918874426 0.4999999998 1.438675766e-05
3.918773168 0.4619290173 0.1913676643
3.918752697 0.3535663476 0.3535404331
3.91876169 0.1913493459 0.4619366058
3.919058505 -0.1913967174 0.4619169802
3.91876066 4.104430722e-05 0.4999999983
3.585841812 0.3535427582 0.3535640226
3.586083383 0.461949115 0.1913191448
3.586179594 0.5 -4.138107897e-08
3.586179702 0.4619397721 -0.191341702
3.586179718 0.353553407 -0.3535533742
3.586179722 0.1913417306 -0.4619397603
3.586179733 -1.936919255e-08 -0.5
3.586179797 -0.1913418517 -0.4619397101
3.586180186 -0.3535538087 -0.3535529725
3.586182453 -0.4619405557 -0.1913398103
3.586194418 -0.5 6.378740527e-06
3.586243432 -0.4619341372 0.1913553055
3.58627502 -0.3535595294 0.3535472517
3.586299553 -0.1913587702 0.4619327019
3.586157854 0.1913464652 0.4619377991
3.586409528 -2.470078979e-05 0.4999999994
4.084906307 -0.2777441513 0.4157621753
4.084565484 -0.4157665856 0.2777375493
4.084385714 -0.490395188 0.09753235131
4.084385714 -0.490390092 -0.09755797064
4.084385714 -0.4157275499 -0.2777959759
4.084385714 -0.277774257 -0.4157420621
4.084385714 -0.09753235154 -0.490395188
4.084385713 0.09755797022 -0.4903900921
4.084385708 0.2777959763 -0.4157275497
4.084385674 0.415742068 -0.277774248
4.084385439 0.4903952031 -0.09753227563
4.08438391 0.4903900078 0.09755839428
4.08437459 0.4157263964 0.2777977022
4.084323458 0.2777672959 0.4157467129
4.084099415 0.09751069872 0.4903994939
4.083758225 -0.09750263527 0.4904010972
3.418948219 0.2777851165 0.4157348062
3.418948219 0.4157348062 0.2777851165
3.418948219 0.4903926402 0.09754516101
3.418948219 0.4903926402 -0.09754516101
3.418948219 0.4157348062 -0.2777851165
3.418948219 0.2777851165 -0.4157348062
3.418948219 0.09754516101 -0.4903926402
3.418948219 -0.09754516101 -0.4903926402
3.418948219 -0.2777851165 -0.4157348062
3.418948219 -0.4157348062 -0.2777851165
3.418948219 -0.4903926402 -0.09754516101
3.418948219 -0.4903926402 0.09754516101
3.418948219 -0.4157348062 0.2777851165
3.418948219 -0.2777851165 0.4157348062
3.418948219 -0.09754516101 0.4903926402
3.418948219 0.09754516101 0.4903926402
3.25 0.04618786222 0.2963534528
3.25 0.2416448663 0.2471254499
3.25 0.2954670438 0.05963488799
3.25 0.3225470908 -0.1331064319
3.25 0.1690736851 -0.2542322551
3.25 0.0003851645617 -0.3507835239
3.25 -0.1709888883 -0.2557913799
3.25 -0.324582301 -0.1358347811
3.25 -0.3031155981 0.0551308723
3.25 -0.2748242166 0.211119053
3.25 -0.1469191159 0.3259851843
3.25 0.1028748785 0.1108713685
3.25 0.1472092839 -0.06529403026
3.25 -0.002601132257 -0.1669935442
3.25 -0.1522756309 -0.06335516553
3.25 -0.1046363503 0.1323595946
3.25 -0.00188579022 -0.01048235539
4.25 -0.04618786222 0.2963534528
4.25 -0.2416448663 0.2471254499
4.25 -0.2954670438 0.05963488799
4.25 -0.3225470908 -0.1331064319
4.25 -0.1690736851 -0.2542322551
4.25 -0.0003851645617 -0.3507835239
4.25 0.1709888883 -0.2557913799
4.25 0.324582301 -0.1358347811
4.25 0.3031155981 0.0551308723
4.25 0.2748242166 0.211119053
4.25 0.1469191159 0.3259851843
4.25 -0.1028748785 0.1108713685
4.25 -0.1472092839 -0.06529403026
4.25 0.002601132257 -0.1669935442
4.25 0.1522756309 -0.06335516553
4.25 0.1046363503 0.1323595946
4.25 0.00188579022 -0.01048235539
3.882776737 0.04894499481 -0.2220858335
4.039094925 -0.1369694471 -0.3427574635
3.884786367 -0.1315554976 -0.1808400452
3.881288528 -0.07428178936 -0.3667686582
3.752492189 -0.1390841901 -0.2770361006
3.946673393 0.1924162358 -0.1069073007
3.752440453 0.09578762949 -0.1627802104
3.883045912 0.03096500225 -0.06401421875
3.75930357 -0.05762710422 -0.1315472126
3.497174263 0.05975848436 0.1717361957
3.382961512 0.01481741387 0.1120257527
3.503227949 -0.02902132832 -0.01991494186
3.576123238 -0.07050084323 0.09567876905
3.492750883 -0.09005270898 0.2043163627
3.622993469 0.03889079764 -0.07788622379
3.629523993 -0.2014659196 0.01007657964
3.374613523 -0.104105711 0.05601034686
3.494870663 -0.2276477814 0.06339307129
3.613856077 -0.2906973064 0.1957978159
3.687670231 -0.09061796963 0.2087958455
3.750622511 -0.1217389405 0.05273131654
3.389467955 0.02718310803 -0.264062196
3.877369404 -0.1719222516 -0.007364389021
3.883064985 -0.04317782819 0.1113674939
4.010352135 -0.03526240215 0.02970348671
3.828439713 -0.01088271383 0.2535621822
3.740407705 0.0819356069 0.1204198897
3.824334383 -0.1598321944 0.1736149937
4.128157139 0.29281497 -0.1994662881
4.070095062 0.1203416213 -0.2064325064
4.006055832 0.2609803081 -0.2632327378
4.006054878 0.3408309817 -0.1437219083
4.126692772 0.2707525194 -0.06056796759
3.883547783 0.2051290125 -0.3090087175
4.011561394 -0.1394414604 -0.09306956083
4.011505604 0.02440807596 -0.1435788423
3.752491713 0.005109666847 -0.3367618322
3.883214474 0.174229756 0.1586227119
3.752389193 0.1864669919 0.01120432001
3.486555099 0.2090698481 -0.2943248153
3.748239756 -0.3192851841 0.1576472074
3.760835886 -0.147855565 0.3192923963
4.010416031 -0.2372856736 0.04413828626
4.009836674 -0.1115376204 0.2043138444
3.892598867 -0.3028818667 0.2039305866
3.875154257 -0.3541843295 0.0710875988
3.759584427 -0.3064258099 -0.01632795855
3.620628834 0.1848253906 -0.07369686663
3.477208853 0.1543720961 -0.1534981281
3.456721544 0.3619123697 -0.0033506623
3.482131004 0.3229436874 -0.157772392
3.620194912 0.3057552278 -0.2073875368
3.501586914 0.1706002355 0.07217893004
3.620120049 0.3607504964 0.06909929216
3.751832008 0.3612474203 -0.00275701494
3.613128424 0.1987650394 -0.2974309325
3.462390184 -0.0003862817539 0.3693757653
4.004081249 0.02960701101 0.1802643538
3.614659548 0.06556282192 -0.3436109722
3.621077776 -0.07231428474 -0.2225129008
3.755366802 0.1113913953 0.3235614896
3.883415937 0.2051376104 0.3034798801
3.883265495 0.07168339938 0.3517376781
4.007369518 -0.001433794387 0.3655075133
3.873948336 -0.06000592932 0.3621217608
3.622505188 0.07149133086 0.3403122127
3.498458862 0.0222509671 -0.1789467037
3.37248373 0.05522564799 -0.07026445866
4.006056309 0.141473189 -0.3430883586
4.127370358 0.09785825759 -0.07741965353
4.009810448 0.1569599956 0.0988060683
4.131858349 -0.04666024446 -0.1063163728
3.883544683 0.3617441952 -0.07461376488
3.751870155 0.3337497115 -0.141000554
4.004743099 0.007097215857 -0.3623008132
4.051519871 -0.2591477036 -0.2642817795
3.886957884 -0.3027065694 -0.2095356584
4.1398592 -0.1131882071 0.02045940422
4.126005173 -0.2271451205 -0.06351072341
3.752491713 0.1611832976 -0.3367604911
3.749698162 -0.2735821307 -0.180829674
3.88354826 -0.2041305602 -0.309012115
3.371235371 -0.2861270607 -0.1978695095
3.380572557 -0.2524553537 -0.05393719673
3.493270159 -0.3467098773 -0.1563621759
3.489269257 -0.1731592417 -0.1464001536
3.369916677 -0.1021765843 -0.1324334443
3.361545324 -0.08981714398 -0.352655828
3.499314547 -0.1217878088 -0.3340887725
3.497548103 0.3397599161 0.1381579936
3.47815752 -0.2505749166 0.2508822083
3.3616364 -0.2337082326 0.1433821023
3.370560646 -0.06871642917 0.252636224
3.64066577 -0.06177094206 0.3577993214
3.501832962 -0.2608842552 -0.266517669
3.502761602 0.04308666289 -0.3605641127
3.367225885 0.1065153927 0.005502523389
3.628815174 -0.2096199393 0.2967191339
3.62024498 -0.3617390096 0.06909967214
3.492119789 -0.3713643253 -0.007054984104
3.489887953 -0.3406397402 0.1280905306
4.004564285 -0.338917613 0.1602028608
4.126694202 -0.1788579375 0.1521641612
3.888891697 -0.3582018018 -0.07548381388
4.041054726 0.3720936477 -0.002060316969
3.88346982 0.3617438078 0.06909929216
4.076067924 -0.3748287857 -0.001386062359
4.128119469 0.07049079239 -0.3469388485
4.128937244 -0.03862981871 -0.2641827762
4.008891106 0.1415032893 0.3361614645
3.620205402 -0.3617429435 -0.07461749762
3.620060205 0.2041444033 0.3034798801
3.883547306 0.30674842 -0.2073875368
3.620193243 0.360751003 -0.07461376488
3.375145435 0.1834451407 0.142144978
3.475331783 0.1887006015 0.3256025314
3.620011568 0.3057467639 0.201871857
3.349015236 0.1901929975 -0.09953835607
3.752337694 0.2771479785 0.185191825
[...]
POINT_DATA 280
SCALARS KDE_TALLY_TAG double 1
LOOKUP_TABLE default
0.4648498457 
0.4328371046 
0.4645841973 
0.4885660289 
0.4511229484 
0.4674110103 
0.4539368632 
0.4896745456 
0.461308335 
0.4516128218 
0.4723617717 
0.4577157552 
0.4561861663 
0.4731008634 
0.456093944 
0.4625571979 
0.381162826 
0.3729254262 
0.3690494061 
0.4023504563 
0.385744382 
0.3913612863 
0.390434876 
0.3882798868 
0.3900681825 
0.3834650666 
0.380584583 
0.3810229924 
0.3764529352 
0.3711063034 
0.3881103991 
0.3916265025 
0.3392226565 
0.3276562913 
0.3392391061 
0.3584012938 
0.3459564375 
0.3345885316 
0.3256602097 
0.3214869426 
0.3406090831 
0.3347793666 
0.3330981557 
0.337383923 
0.3294025463 
0.3313780077 
0.3533234069 
0.3350507128 
0.3260961895 
0.3214884134 
0.3308278396 
0.3115423717 
0.325585235 
0.3303057984 
0.2967457417 
0.2999672749 
0.3408594811 
0.318809414 
0.3266634723 
0.3257349713 
0.3284293561 
0.3325933113 
0.3230736117 
0.3319934835 
0.3491428691 
0.3360481143 
0.340435482 
0.3604939828 
0.3619661649 
0.3629496621 
0.3502536441 
0.3397954566 
0.3269527922 
0.339420976 
0.345011607 
0.3513945238 
0.3427748589 
0.3595881997 
0.346698222 
0.3449864026 
0.3143469456 
0.3073614347 
0.3322886193 
0.3083239787 
0.3207012974 
0.3144809965 
0.3270946482 
0.3177551537 
0.3371677589 
0.3011041819 
0.3213894584 
0.3042909626 
0.3124026723 
0.3295087657 
0.3183337093 
0.3070843139 
0.3737529485 
0.3851183187 
0.3859433377 
0.3687091961 
0.3792173452 
0.3863008295 
0.3669268463 
0.3719372997 
0.3673376922 
0.3732494156 
0.3726003589 
0.3746757686 
0.3487257065 
0.3788177803 
0.3828876762 
0.3597944892 
0.391290811 
0.3746623766 
0.3804917408 
0.3909547209 
0.3807004503 
0.3798749566 
0.3851186349 
0.3817063883 
0.3814634476 
0.381030096 
0.3605788879 
0.3814907241 
0.3763142952 
0.3854739937 
0.386166893 
0.3811908638 
0.359542241 
0.3118837759 
0.3169583834 
0.3004516098 
0.299467677 
0.3165101168 
0.3034613818 
0.2954616339 
0.3283265837 
0.2961399086 
0.3125281138 
0.3195179595 
0.2963458876 
0.3159600637 
0.3167143686 
0.309934013 
0.2958923146 
0.3060224817 
0.2272155846 
0.2179343742 
0.2462886732 
0.2258882131 
0.258341426 
0.2296028744 
0.2468924242 
0.2226794263 
0.246523195 
0.2469340016 
0.2866999359 
0.2478519449 
0.2504841623 
0.2373741646 
0.2474167994 
0.2299447008 
0.2676295243 
0.2606093116 
0.2408493949 
0.2377281188 
0.2294262895 
0.2861466511 
0.2257003742 
0.2245876739 
0.2205333462 
0.211257783 
0.2220087997 
0.2244617048 
0.2244172041 
0.2234605164 
0.2014470339 
0.2261567299 
0.2296922239 
0.218013272 
0.2217358723 
0.2275332088 
0.2288182347 
0.2308360438 
0.2282736433 
0.2557525429 
0.2277749425 
0.2283037775 
0.2085311614 
0.2088789075 
0.217201792 
0.2292294271 
0.2407055802 
0.2554504893 
0.2653326512 
0.2588401057 
0.2717614129 
0.2651552867 
0.2379012956 
0.2407716067 
0.2460224339 
0.246470042 
0.2621660835 
0.2099053153 
0.2519276298 
0.236019354 
0.2455551 
0.2237034621 
0.235940258 
0.2124934496 
0.2360066742 
0.2528091021 
0.2606697856 
0.2765939103 
0.2168424526 
0.2210528907 
0.2262739155 
0.2343273377 
0.2370356509 
0.2252571615 
0.218630394 
0.2097769712 
0.2331154148 
0.2153537236 
0.2196052879 
0.2229572167 
0.2309573031 
0.2228464903 
0.2734532788 
0.2898035345 
0.2522662167 
0.2509209924 
0.2889315394 
0.2817349449 
0.2549363261 
0.2437801691 
0.2625074816 
0.2990671909 
0.2814996407 
0.2380870392 
0.2290454377 
0.2543732884 
0.2685165238 
0.2238413153 
0.2594066662 
0.2562286155 
0.2564775496 
0.2188687381 
0.2179142162 
0.223550038 
0.2254318762 
0.2301337911 
0.2165755755 
0.2236581472 
0.2382258596 
0.2270926626 
0.2424248978 
0.234964092 
0.2090767134 
0.2494982095 
0.2727297339 
0.2462374323 
0.2338888525 
0.302093171 
0.2354687375 
0.2083734231 
0.2369661715 
0.21151737 
0.2284466391 
0.2114208532 
0.218507798 
0.2205953566 
0.2373516847 
0.2260302268 
0.2220246395 
0.2396213984 
0.2392369775 
0.227716834 
0.2234696341 
0.2427349595 
SCALARS KDE_ERROR_TAG double 1
LOOKUP_TABLE default
0.02727516948 
0.02747911908 
0.02719483882 
0.02652779066 
0.02739839402 
0.026993593 
0.02746738573 
0.02675172621 
0.02764040662 
0.02738641591 
0.02729574737 
0.02720830076 
0.02690806543 
0.02723827413 
0.02764669022 
0.02799147909 
0.02994302141 
0.03043368801 
0.03079864602 
0.02936230081 
0.03011971458 
0.02969476395 
0.02925289589 
0.02927981006 
0.02963909942 
0.02981868734 
0.02995356075 
0.03065342832 
0.03007061602 
0.03039300007 
0.02953455672 
0.0294607306 
0.03112584347 
0.03180553915 
0.0318886606 
0.03139792315 
0.03130565387 
0.03188952949 
0.03197686013 
0.03188138328 
0.03212697177 
0.03243353409 
0.03216747503 
0.03256954871 
0.0322771815 
0.03136456223 
0.03139611713 
0.03126725537 
0.03239547273 
0.03283659616 
0.03224885219 
0.03294813184 
0.03178852503 
0.03244104007 
0.03345547722 
0.03349471834 
0.0321880332 
0.03251892926 
0.03250257462 
0.03148203783 
0.03233234607 
0.03203755882 
0.03275703979 
0.03210905302 
0.03140888184 
0.03143031413 
0.03116411152 
0.03098537594 
0.03100991053 
0.03107852381 
0.03244561519 
0.03134524532 
0.03185217568 
0.03272614583 
0.03165288102 
0.03196102513 
0.03233066351 
0.03191824673 
0.03179898407 
0.03141256717 
0.03283743859 
0.03313241282 
0.03233715841 
0.03289070305 
0.03253349997 
0.03210724933 
0.03195047059 
0.03271122462 
0.03191822917 
0.03296753378 
0.03320476684 
0.0327786422 
0.03325481625 
0.03224684796 
0.03226452487 
0.03304437257 
0.03020762529 
0.02990656702 
0.03025635175 
0.03070129789 
0.03054347606 
0.02950480117 
0.03023005881 
0.03058411524 
0.03042520383 
0.03054268108 
0.03030710037 
0.03068776831 
0.03088552674 
0.03043768475 
0.03013916045 
0.03111469203 
0.03043437762 
0.03049247839 
0.03092829082 
0.02964903862 
0.03087039689 
0.03042918234 
0.03015761134 
0.02946244834 
0.03045158977 
0.03068525691 
0.03121499535 
0.03036936853 
0.03086758291 
0.03028849703 
0.03105664784 
0.03037338507 
0.03106551608 
0.0328798467 
0.03266074779 
0.03352379098 
0.03412863131 
0.03343230844 
0.0337029257 
0.0352321341 
0.03244547471 
0.03402418358 
0.03241259349 
0.0340648053 
0.03382953745 
0.0340977873 
0.03313897519 
0.03340018517 
0.03414006863 
0.03440460178 
0.04071159724 
0.04289960604 
0.040840451 
0.04104593405 
0.03896548529 
0.04141847458 
0.04073473699 
0.04265579535 
0.04003427043 
0.03899630197 
0.03728384607 
0.03903249385 
0.04012084227 
0.04092969816 
0.04002079541 
0.04059036782 
0.0367633585 
0.03908809918 
0.04081661896 
0.04132670147 
0.04118568094 
0.0378941231 
0.04176382212 
0.04132829724 
0.04354291326 
0.04131692417 
0.04046687494 
0.04147566132 
0.03997686279 
0.04217173146 
0.04270910207 
0.04206372178 
0.03910944513 
0.04272183723 
0.04317039688 
0.04262080605 
0.04035547483 
0.04153332434 
0.041516581 
0.03876120844 
0.04128667092 
0.04147055348 
0.04290511931 
0.04263661082 
0.043352178 
0.04195631496 
0.0403914251 
0.03901576672 
0.03795184375 
0.03939390894 
0.03709347294 
0.03830717068 
0.03947342511 
0.04031577717 
0.04079804606 
0.03978403566 
0.03865478671 
0.04307024286 
0.03919600572 
0.04083339843 
0.03982059792 
0.04227138112 
0.04045740631 
0.04252328615 
0.04231411023 
0.03931346895 
0.03915109393 
0.0355329448 
0.04257530873 
0.04072753527 
0.04069913112 
0.03962811518 
0.03951706035 
0.03972739816 
0.04139954702 
0.04262044291 
0.0406737652 
0.04095108589 
0.04102860556 
0.04088261646 
0.0412191255 
0.04141157814 
0.03622252327 
0.03596761852 
0.03811318274 
0.03961105057 
0.0358956709 
0.03495457544 
0.04013871325 
0.03883271983 
0.03928716963 
0.03481536186 
0.0383382627 
0.0406511093 
0.04017722702 
0.03906816003 
0.03702024408 
0.04137993528 
0.03991588661 
0.03909784432 
0.0395768757 
0.04301500619 
0.0405712521 
0.04087230833 
0.04263551847 
0.04169622406 
0.04306095697 
0.04117696042 
0.04109809084 
0.04245689801 
0.03887152184 
0.04056810276 
0.0434852457 
0.03913402995 
0.0364879927 
0.03978758978 
0.0403373459 
0.03485872425 
0.04088934798 
0.04258604321 
0.03997854535 
0.04285277003 
0.04024849851 
0.04252730168 
0.04240387095 
0.04197217224 
0.03919346548 
0.03940953338 
0.0426103914 
0.0397499311 
0.04013755797 
0.0412775539 
0.04050605585 
0.04024040684 
