# vtk DataFile Version 3.0
MOAB 4.9.0
ASCII
DATASET UNSTRUCTURED_GRID
POINTS 1225 double
0 -0.5 0.5
0 0.5 0.5
0 -0.3333333333 0.5
0 -0.1666666667 0.5
0 0 0.5
0 0.1666666667 0.5
0 0.3333333333 0.5
0 0.5 -0.5
0 0.5 0.3333333333
0 0.5 0.1666666667
0 0.5 0
0 0.5 -0.1666666667
0 0.5 -0.3333333333
0 -0.5 -0.5
0 0.3333333333 -0.5
0 0.1666666667 -0.5
0 0 -0.5
0 -0.1666666667 -0.5
0 -0.3333333333 -0.5
0 -0.5 -0.3333333333
0 -0.5 -0.1666666667
0 -0.5 0
0 -0.5 0.1666666667
0 -0.5 0.3333333333
0 -0.3333333333 0.3333333333
0 -0.1666666667 0.3333333333
0 -6.938893904e-18 0.3333333333
0 0.1666666667 0.3333333333
0 0.3333333333 0.3333333333
0 -0.3333333333 0.1666666667
0 -0.1666666667 0.1666666667
0 -1.387778781e-17 0.1666666667
0 0.1666666667 0.1666666667
0 0.3333333333 0.1666666667
0 -0.3333333333 0
0 -0.1666666667 0
0 0 0
0 0.1666666667 0
0 0.3333333333 0
0 -0.3333333333 -0.1666666667
0 -0.1666666667 -0.1666666667
0 0 -0.1666666667
0 0.1666666667 -0.1666666667
0 0.3333333333 -0.1666666667
0 -0.3333333333 -0.3333333333
0 -0.1666666667 -0.3333333333
0 0 -0.3333333333
0 0.1666666667 -0.3333333333
0 0.3333333333 -0.3333333333
2.5 -0.5 -0.5
0.2083333333 -0.5 -0.5
0.4166666667 -0.5 -0.5
0.625 -0.5 -0.5
0.8333333333 -0.5 -0.5
1.041666667 -0.5 -0.5
1.25 -0.5 -0.5
1.458333333 -0.5 -0.5
1.666666667 -0.5 -0.5
1.875 -0.5 -0.5
2.083333333 -0.5 -0.5
2.291666667 -0.5 -0.5
2.5 -0.5 0.5
2.5 -0.5 0.3333333333
2.5 -0.5 0.1666666667
2.5 -0.5 0
2.5 -0.5 -0.1666666667
2.5 -0.5 -0.3333333333
2.291666667 -0.5 0.5
2.083333333 -0.5 0.5
1.875 -0.5 0.5
1.666666667 -0.5 0.5
1.458333333 -0.5 0.5
1.25 -0.5 0.5
1.041666667 -0.5 0.5
0.8333333333 -0.5 0.5
0.625 -0.5 0.5
0.4166666667 -0.5 0.5
0.2083333333 -0.5 0.5
0.2083333333 -0.5 -0.3333333333
0.4166666667 -0.5 -0.3333333333
0.625 -0.5 -0.3333333333
0.8333333333 -0.5 -0.3333333333
1.041666667 -0.5 -0.3333333333
1.25 -0.5 -0.3333333333
1.458333333 -0.5 -0.3333333333
1.666666667 -0.5 -0.3333333333
1.875 -0.5 -0.3333333333
2.083333333 -0.5 -0.3333333333
2.291666667 -0.5 -0.3333333333
0.2083333333 -0.5 -0.1666666667
0.4166666667 -0.5 -0.1666666667
0.625 -0.5 -0.1666666667
0.8333333333 -0.5 -0.1666666667
1.041666667 -0.5 -0.1666666667
1.25 -0.5 -0.1666666667
1.458333333 -0.5 -0.1666666667
1.666666667 -0.5 -0.1666666667
1.875 -0.5 -0.1666666667
2.083333333 -0.5 -0.1666666667
2.291666667 -0.5 -0.1666666667
0.2083333333 -0.5 0
0.4166666667 -0.5 0
0.625 -0.5 0
0.8333333333 -0.5 0
1.041666667 -0.5 0
1.25 -0.5 0
1.458333333 -0.5 0
1.666666667 -0.5 0
1.875 -0.5 0
2.083333333 -0.5 0
2.291666667 -0.5 0
0.2083333333 -0.5 0.1666666667
0.4166666667 -0.5 0.1666666667
0.625 -0.5 0.1666666667
0.8333333333 -0.5 0.1666666667
1.041666667 -0.5 0.1666666667
1.25 -0.5 0.1666666667
1.458333333 -0.5 0.1666666667
1.666666667 -0.5 0.1666666667
1.875 -0.5 0.1666666667
2.083333333 -0.5 0.1666666667
2.291666667 -0.5 0.1666666667
0.2083333333 -0.5 0.3333333333
0.4166666667 -0.5 0.3333333333
0.625 -0.5 0.3333333333
0.8333333333 -0.5 0.3333333333
1.041666667 -0.5 0.3333333333
1.25 -0.5 0.3333333333
1.458333333 -0.5 0.3333333333
1.666666667 -0.5 0.3333333333
1.875 -0.5 0.3333333333
2.083333333 -0.5 0.3333333333
2.291666667 -0.5 0.3333333333
2.5 0.5 -0.5
2.291666667 0.5 -0.5
2.083333333 0.5 -0.5
1.875 0.5 -0.5
1.666666667 0.5 -0.5
1.458333333 0.5 -0.5
1.25 0.5 -0.5
1.041666667 0.5 -0.5
0.8333333333 0.5 -0.5
0.625 0.5 -0.5
0.4166666667 0.5 -0.5
0.2083333333 0.5 -0.5
2.5 -0.3333333333 -0.5
2.5 -0.1666666667 -0.5
2.5 0 -0.5
2.5 0.1666666667 -0.5
2.5 0.3333333333 -0.5
0.2083333333 0.3333333333 -0.5
0.4166666667 0.3333333333 -0.5
0.625 0.3333333333 -0.5
0.8333333333 0.3333333333 -0.5
1.041666667 0.3333333333 -0.5
1.25 0.3333333333 -0.5
1.458333333 0.3333333333 -0.5
1.666666667 0.3333333333 -0.5
1.875 0.3333333333 -0.5
2.083333333 0.3333333333 -0.5
2.291666667 0.3333333333 -0.5
0.2083333333 0.1666666667 -0.5
0.4166666667 0.1666666667 -0.5
0.625 0.1666666667 -0.5
0.8333333333 0.1666666667 -0.5
1.041666667 0.1666666667 -0.5
1.25 0.1666666667 -0.5
1.458333333 0.1666666667 -0.5
1.666666667 0.1666666667 -0.5
1.875 0.1666666667 -0.5
2.083333333 0.1666666667 -0.5
2.291666667 0.1666666667 -0.5
0.2083333333 0 -0.5
0.4166666667 0 -0.5
0.625 0 -0.5
0.8333333333 0 -0.5
1.041666667 0 -0.5
1.25 0 -0.5
1.458333333 0 -0.5
1.666666667 0 -0.5
1.875 0 -0.5
2.083333333 0 -0.5
2.291666667 0 -0.5
0.2083333333 -0.1666666667 -0.5
0.4166666667 -0.1666666667 -0.5
0.625 -0.1666666667 -0.5
0.8333333333 -0.1666666667 -0.5
1.041666667 -0.1666666667 -0.5
1.25 -0.1666666667 -0.5
1.458333333 -0.1666666667 -0.5
1.666666667 -0.1666666667 -0.5
1.875 -0.1666666667 -0.5
2.083333333 -0.1666666667 -0.5
2.291666667 -0.1666666667 -0.5
0.2083333333 -0.3333333333 -0.5
0.4166666667 -0.3333333333 -0.5
0.625 -0.3333333333 -0.5
0.8333333333 -0.3333333333 -0.5
1.041666667 -0.3333333333 -0.5
1.25 -0.3333333333 -0.5
1.458333333 -0.3333333333 -0.5
1.666666667 -0.3333333333 -0.5
1.875 -0.3333333333 -0.5
2.083333333 -0.3333333333 -0.5
2.291666667 -0.3333333333 -0.5
2.5 0.5 0.5
2.5 0.5 -0.3333333333
2.5 0.5 -0.1666666667
2.5 0.5 0
2.5 0.5 0.1666666667
2.5 0.5 0.3333333333
2.5 0.3333333333 0.5
2.5 0.1666666667 0.5
2.5 0 0.5
2.5 -0.1666666667 0.5
2.5 -0.3333333333 0.5
2.5 0.3333333333 -0.3333333333
2.5 0.3333333333 -0.1666666667
2.5 0.3333333333 -6.938893904e-18
2.5 0.3333333333 0.1666666667
2.5 0.3333333333 0.3333333333
2.5 0.1666666667 -0.3333333333
2.5 0.1666666667 -0.1666666667
2.5 0.1666666667 -1.387778781e-17
2.5 0.1666666667 0.1666666667
2.5 0.1666666667 0.3333333333
2.5 0 -0.3333333333
2.5 0 -0.1666666667
2.5 0 0
2.5 0 0.1666666667
2.5 0 0.3333333333
2.5 -0.1666666667 -0.3333333333
2.5 -0.1666666667 -0.1666666667
2.5 -0.1666666667 0
2.5 -0.1666666667 0.1666666667
2.5 -0.1666666667 0.3333333333
2.5 -0.3333333333 -0.3333333333
2.5 -0.3333333333 -0.1666666667
2.5 -0.3333333333 0
2.5 -0.3333333333 0.1666666667
2.5 -0.3333333333 0.3333333333
0.2083333333 0.5 0.5
0.4166666667 0.5 0.5
0.625 0.5 0.5
0.8333333333 0.5 0.5
1.041666667 0.5 0.5
1.25 0.5 0.5
1.458333333 0.5 0.5
1.666666667 0.5 0.5
1.875 0.5 0.5
2.083333333 0.5 0.5
2.291666667 0.5 0.5
0.2083333333 -0.3333333333 0.5
0.4166666667 -0.3333333333 0.5
0.625 -0.3333333333 0.5
0.8333333333 -0.3333333333 0.5
1.041666667 -0.3333333333 0.5
1.25 -0.3333333333 0.5
1.458333333 -0.3333333333 0.5
1.666666667 -0.3333333333 0.5
1.875 -0.3333333333 0.5
2.083333333 -0.3333333333 0.5
2.291666667 -0.3333333333 0.5
0.2083333333 -0.1666666667 0.5
0.4166666667 -0.1666666667 0.5
0.625 -0.1666666667 0.5
0.8333333333 -0.1666666667 0.5
1.041666667 -0.1666666667 0.5
1.25 -0.1666666667 0.5
1.458333333 -0.1666666667 0.5
1.666666667 -0.1666666667 0.5
1.875 -0.1666666667 0.5
2.083333333 -0.1666666667 0.5
2.291666667 -0.1666666667 0.5
0.2083333333 0 0.5
0.4166666667 0 0.5
0.625 0 0.5
0.8333333333 0 0.5
1.041666667 0 0.5
1.25 0 0.5
1.458333333 0 0.5
1.666666667 0 0.5
1.875 0 0.5
2.083333333 0 0.5
2.291666667 0 0.5
0.2083333333 0.1666666667 0.5
0.4166666667 0.1666666667 0.5
0.625 0.1666666667 0.5
0.8333333333 0.1666666667 0.5
1.041666667 0.1666666667 0.5
1.25 0.1666666667 0.5
1.458333333 0.1666666667 0.5
1.666666667 0.1666666667 0.5
1.875 0.1666666667 0.5
2.083333333 0.1666666667 0.5
2.291666667 0.1666666667 0.5
0.2083333333 0.3333333333 0.5
0.4166666667 0.3333333333 0.5
0.625 0.3333333333 0.5
0.8333333333 0.3333333333 0.5
1.041666667 0.3333333333 0.5
1.25 0.3333333333 0.5
1.458333333 0.3333333333 0.5
1.666666667 0.3333333333 0.5
1.875 0.3333333333 0.5
2.083333333 0.3333333333 0.5
2.291666667 0.3333333333 0.5
0.2083333333 0.5 0.3333333333
0.4166666667 0.5 0.3333333333
0.625 0.5 0.3333333333
0.8333333333 0.5 0.3333333333
1.041666667 0.5 0.3333333333
1.25 0.5 0.3333333333
1.458333333 0.5 0.3333333333
1.666666667 0.5 0.3333333333
1.875 0.5 0.3333333333
2.083333333 0.5 0.3333333333
2.291666667 0.5 0.3333333333
0.2083333333 0.5 0.1666666667
0.4166666667 0.5 0.1666666667
0.625 0.5 0.1666666667
0.8333333333 0.5 0.1666666667
1.041666667 0.5 0.1666666667
1.25 0.5 0.1666666667
1.458333333 0.5 0.1666666667
1.666666667 0.5 0.1666666667
1.875 0.5 0.1666666667
2.083333333 0.5 0.1666666667
2.291666667 0.5 0.1666666667
0.2083333333 0.5 0
0.4166666667 0.5 0
0.625 0.5 0
0.8333333333 0.5 0
1.041666667 0.5 0
1.25 0.5 0
1.458333333 0.5 0
1.666666667 0.5 0
1.875 0.5 0
2.083333333 0.5 0
2.291666667 0.5 0
0.2083333333 0.5 -0.1666666667
0.4166666667 0.5 -0.1666666667
0.625 0.5 -0.1666666667
0.8333333333 0.5 -0.1666666667
1.041666667 0.5 -0.1666666667
1.25 0.5 -0.1666666667
1.458333333 0.5 -0.1666666667
1.666666667 0.5 -0.1666666667
1.875 0.5 -0.1666666667
2.083333333 0.5 -0.1666666667
2.291666667 0.5 -0.1666666667
0.2083333333 0.5 -0.3333333333
0.4166666667 0.5 -0.3333333333
0.625 0.5 -0.3333333333
0.8333333333 0.5 -0.3333333333
1.041666667 0.5 -0.3333333333
1.25 0.5 -0.3333333333
1.458333333 0.5 -0.3333333333
1.666666667 0.5 -0.3333333333
1.875 0.5 -0.3333333333
2.083333333 0.5 -0.3333333333
2.291666667 0.5 -0.3333333333
0.2083333333 -0.3333333333 -0.3333333333
0.4166666667 -0.3333333333 -0.3333333333
0.625 -0.3333333333 -0.3333333333
0.8333333333 -0.3333333333 -0.3333333333
1.041666667 -0.3333333333 -0.3333333333
1.25 -0.3333333333 -0.3333333333
1.458333333 -0.3333333333 -0.3333333333
1.666666667 -0.3333333333 -0.3333333333
1.875 -0.3333333333 -0.3333333333
2.083333333 -0.3333333333 -0.3333333333
2.291666667 -0.3333333333 -0.3333333333
0.2083333333 -0.1666666667 -0.3333333333
0.4166666667 -0.1666666667 -0.3333333333
0.625 -0.1666666667 -0.3333333333
0.8333333333 -0.1666666667 -0.3333333333
1.041666667 -0.1666666667 -0.3333333333
1.25 -0.1666666667 -0.3333333333
1.458333333 -0.1666666667 -0.3333333333
1.666666667 -0.1666666667 -0.3333333333
1.875 -0.1666666667 -0.3333333333
2.083333333 -0.1666666667 -0.3333333333
2.291666667 -0.1666666667 -0.3333333333
0.2083333333 0 -0.3333333333
0.4166666667 1.387778781e-17 -0.3333333333
0.625 -1.387778781e-17 -0.3333333333
0.8333333333 -1.387778781e-17 -0.3333333333
1.041666667 5.551115123e-17 -0.3333333333
1.25 1.387778781e-17 -0.3333333333
[...]
POINT_DATA 1225
SCALARS KDE_TALLY_TAG double 1
LOOKUP_TABLE default
2.368633417 
2.425255911 
2.344820297 
2.553480052 
2.51971994 
2.349585869 
2.564270194 
2.383036374 
2.471437368 
2.334243562 
2.431783461 
2.383900201 
2.465151558 
2.544193882 
2.342606025 
2.34879616 
2.387829675 
2.321589945 
2.322231687 
2.296972486 
2.407881779 
2.392872017 
2.486182451 
2.397360036 
2.518383912 
2.441549911 
2.459748838 
2.503250536 
2.468740755 
2.423489928 
2.449312607 
2.504917521 
2.351160868 
2.368335194 
2.327159553 
2.559603512 
2.59623698 
2.40783523 
2.437444048 
2.482499604 
2.442392018 
2.47847544 
2.389559809 
2.349688806 
2.513756293 
2.528321609 
2.41575075 
2.417169932 
2.414278404 
1.487834745 
2.427157171 
2.410664228 
2.242560642 
2.327577434 
2.187658245 
2.136889637 
1.934912759 
1.856348216 
1.735502594 
1.750872609 
1.427392953 
1.245644976 
1.42432984 
1.371423245 
1.440332949 
1.374478655 
1.401282957 
1.467947807 
1.584373259 
1.706752587 
1.868787203 
2.016946531 
2.000997757 
2.157501107 
2.168310753 
2.363013868 
2.329369765 
2.354573726 
2.408724101 
2.324089295 
2.319238668 
2.28709947 
2.15656137 
2.182308687 
1.986049747 
1.822744216 
1.767172241 
1.671554848 
1.482916717 
2.396453774 
2.403717909 
2.239116393 
2.28694898 
2.11078997 
2.065038059 
1.918910186 
1.88129542 
1.676168007 
1.634454855 
1.618014164 
2.417214654 
2.308126059 
2.29491165 
2.137830004 
2.169219842 
2.00380229 
1.943276124 
1.796840874 
1.780870454 
1.694200492 
1.537526206 
2.286936716 
2.313280785 
2.340280554 
2.20717291 
2.143885884 
2.079379485 
1.968921925 
1.889324357 
1.735896133 
1.682316375 
1.400462228 
2.499801831 
2.291622698 
2.085232126 
2.106610769 
2.131623585 
1.947123919 
1.978661613 
1.773602532 
1.725362843 
1.66590096 
1.555268484 
1.381681524 
1.571904491 
1.655540414 
1.713316819 
1.796544321 
1.887209136 
2.022535674 
2.11435554 
2.174201784 
2.21071068 
2.394947339 
2.402584759 
1.464161829 
1.354100239 
1.349955957 
1.405577381 
1.321907539 
2.416324284 
2.272149099 
2.302726176 
2.300491928 
2.142263968 
2.041654325 
2.02654544 
1.938629329 
1.790676995 
1.585969962 
1.523205874 
2.364354084 
2.29225024 
2.304029643 
2.186571095 
2.15665762 
2.103525259 
1.899492714 
1.913702575 
1.784548878 
1.723666461 
1.56920875 
2.409511788 
2.300491589 
2.332715069 
2.126133619 
2.101914025 
2.033082724 
2.080627302 
1.975948273 
1.840416751 
1.590231013 
1.569242852 
2.44314226 
2.420893153 
2.195826022 
2.137454271 
2.079313618 
2.030620572 
1.902887832 
1.851281671 
1.778597806 
1.693704386 
1.593643528 
2.477553897 
2.282861033 
2.281898062 
2.227476281 
2.090166686 
2.013887647 
1.911830863 
1.710862294 
1.804408829 
1.608975322 
1.543074341 
1.37539368 
1.333004794 
1.338136127 
1.43814515 
1.421835446 
1.348891488 
1.319642107 
1.39913593 
1.37307678 
1.378626433 
1.42408121 
1.294623811 
1.294049107 
1.264778354 
1.368164784 
1.328566821 
1.43074132 
1.427237771 
1.378450856 
1.381776489 
1.366781841 
1.335829375 
1.332685226 
1.374382533 
1.384405871 
1.39879722 
1.334774799 
1.365487314 
1.407832137 
1.312279342 
1.415302388 
1.384666879 
1.393736211 
1.27181483 
1.387929747 
1.434814055 
2.435318918 
2.225623326 
2.202161083 
2.128059375 
2.067793471 
2.080583122 
1.943961962 
1.823667903 
1.874045479 
1.561473168 
1.60702624 
2.346049994 
2.324329637 
2.314165414 
2.241976851 
2.224568235 
1.945924736 
2.066160424 
1.794978829 
1.83665741 
1.606941377 
1.569094524 
2.326898744 
2.328823021 
2.38292127 
2.104092868 
2.106543755 
2.071132611 
1.987488355 
1.867519629 
1.770665917 
1.556116937 
1.429237322 
2.312279592 
2.287081398 
2.299939118 
2.231925151 
2.101914504 
2.156360003 
1.91814349 
1.897703997 
1.767390122 
1.724043733 
1.578807734 
2.363866912 
2.279571308 
2.2522629 
2.156538945 
2.083566619 
1.946209313 
1.953010407 
1.944322987 
1.826886066 
1.706178261 
1.53904959 
2.350661342 
2.287067328 
2.246518164 
2.268868788 
2.119395958 
2.013917358 
1.968033139 
1.691755585 
1.673120425 
1.711512818 
1.548974987 
2.287492247 
2.302392742 
2.218237721 
2.184348587 
2.128935509 
2.123980466 
1.957903699 
1.830183301 
1.815960499 
1.622010239 
1.428392279 
2.426188434 
2.275376456 
2.195869381 
2.210134362 
2.184687033 
2.035625827 
1.934399255 
1.958081463 
1.758885242 
1.688730366 
1.597917328 
2.406434514 
2.450573015 
2.360851143 
1.990090155 
2.061276201 
2.015852762 
1.964223844 
1.832325689 
1.620852488 
1.679256213 
1.434353735 
2.391148062 
2.331766728 
2.33933427 
2.187711694 
2.277013812 
2.042707139 
1.91946044 
1.804764819 
1.738593275 
1.646615567 
1.43226679 
2.422062989 
2.429931194 
2.285348061 
2.096155054 
2.037656515 
2.076904935 
1.890843953 
1.935741345 
1.800891897 
1.567515184 
1.464210335 
2.442290848 
2.324384657 
2.153071526 
2.232392239 
2.206423373 
2.028180695 
1.895513728 
1.732428977 
1.781603448 
1.551011032 
1.5532434 
2.383217163 
2.233666589 
2.338588123 
2.268906542 
2.07835383 
2.072006727 
1.932225651 
1.790665216 
1.692308211 
1.631957714 
1.544400278 
2.340002568 
2.420131684 
2.294456862 
2.252867412 
2.094501317 
1.998917444 
1.914254407 
1.805337886 
1.796040935 
1.650551061 
1.526689242 
2.281107036 
2.385413304 
2.161954759 
2.204591398 
2.146631227 
1.935101871 
1.895894634 
1.837006856 
1.781997939 
1.699360815 
1.509786001 
2.410437054 
2.467762235 
2.360539158 
2.17136429 
2.15402814 
2.085545093 
1.960001447 
1.99651123 
1.774385331 
1.671141245 
1.560354887 
2.380684713 
2.456764752 
2.374037747 
2.141515379 
2.104331573 
2.130443543 
1.888578986 
1.82993986 
1.760019235 
1.638602841 
1.597088564 
2.25100478 
2.402104525 
2.286641792 
2.21619079 
2.092402589 
2.159072775 
2.024182997 
1.897665481 
1.799341799 
1.740660944 
1.585855709 
2.349037979 
2.361659859 
2.248544556 
2.146781125 
2.108420157 
2.090913269 
1.971782506 
1.892839087 
1.767219387 
1.640475167 
1.481098179 
2.474528468 
2.220179496 
2.224433718 
2.209967198 
2.14009771 
1.926364166 
2.051544355 
1.754506239 
1.755521264 
1.714440709 
1.501231798 
2.512187199 
2.379899134 
2.338848257 
2.190187722 
2.188834269 
2.189224785 
2.000921669 
1.848583676 
1.668012636 
1.631908112 
1.493773073 
2.375748925 
2.38998731 
2.352405097 
2.141312613 
2.177614925 
2.108028158 
1.90841781 
1.792484167 
1.770649754 
1.549059244 
1.580885069 
2.394376376 
2.246692026 
2.248991484 
2.246554843 
2.165702686 
2.101874108 
1.947540886 
1.852582074 
1.842394224 
1.60207604 
1.518162496 
2.437220378 
2.352421624 
2.324960885 
2.21033603 
2.191217358 
1.997867575 
2.021721105 
1.909316411 
1.720378787 
1.698039267 
1.54807562 
2.376931021 
2.333067318 
2.194559285 
2.203100589 
2.158381103 
2.07145373 
2.034100581 
1.792401259 
1.711124169 
1.593658539 
1.481988514 
2.528127872 
2.52489911 
2.362967196 
2.164334747 
2.170215293 
2.065589782 
1.877538943 
1.93269573 
1.768722595 
1.49889527 
1.505562812 
2.360514431 
2.329882795 
2.240589028 
2.109032068 
2.106161163 
1.948835649 
1.945717692 
1.868325305 
1.734020785 
1.696770301 
1.521616367 
2.387547466 
2.302673401 
2.265216612 
2.115638796 
2.12176441 
2.096690919 
1.924151758 
1.86288457 
1.676460187 
1.667211838 
1.4905337 
2.354376848 
2.344969061 
2.240332984 
2.149159119 
2.18709682 
2.048312104 
1.938462927 
1.850743891 
1.786753826 
1.68371019 
1.495885524 
2.474485012 
2.378291704 
2.233335981 
2.164033894 
2.168601141 
2.142516064 
1.897373878 
1.802266227 
1.733094927 
1.639060178 
1.559497466 
2.486446395 
2.328467423 
2.352497692 
2.098700971 
2.151824681 
2.16476251 
1.996824594 
1.812560497 
1.587914047 
1.636208025 
1.525831263 
2.411790265 
2.248660975 
2.330661276 
2.267986323 
2.095102148 
2.174501216 
1.97015528 
1.849217368 
1.580973805 
1.697292215 
1.552606051 
2.279759231 
2.259227076 
2.216396594 
2.161514393 
2.182029162 
2.028186919 
1.878012161 
2.033534958 
1.757666364 
1.647805044 
1.550115759 
2.338848532 
2.236062676 
2.216015902 
2.135183349 
2.107233567 
2.109287327 
1.904199257 
1.852282505 
1.765144287 
1.65902959 
1.545066441 
2.228951208 
2.304768984 
2.184137046 
2.161410172 
2.212950596 
2.106094975 
1.993440694 
1.908115468 
1.718466135 
1.701925408 
1.55428855 
2.328188825 
2.304995943 
2.273279088 
2.146097982 
2.11291527 
2.086917711 
2.086338189 
1.966587868 
1.748662167 
1.512666203 
1.556087782 
0.7247026237 
1.173098589 
1.223900708 
1.028417351 
1.052541753 
0.986195881 
0.8738324636 
0.8157319188 
0.9358859115 
0.812711799 
0.7948622164 
0.882865597 
0.805198003 
0.7192536699 
0.7680101041 
0.8215787983 
0.7360913916 
0.8147230557 
0.7756126631 
0.874796172 
0.9895774169 
0.8995332301 
0.8782007478 
0.9995769327 
1.050414743 
1.1205732 
1.057826882 
1.091099966 
1.228387127 
1.2632033 
1.122469398 
1.068899358 
1.022176831 
0.9838410496 
0.884613247 
0.9005332538 
0.86487514 
0.8678785542 
0.8488274036 
0.825433614 
1.252044317 
1.077729956 
0.9399799691 
1.076457679 
0.9632741888 
1.044840785 
0.833367896 
0.8742806524 
0.7857214976 
0.7919150659 
0.832568727 
1.243757629 
1.278171826 
1.113628974 
1.03735358 
1.069370611 
0.9646539901 
0.8739993174 
0.8666320046 
0.7938153599 
0.7429704483 
0.7582624147 
1.244750684 
1.170038515 
1.117554059 
0.9690968567 
0.8649143666 
0.8465064991 
0.9219140729 
0.8308407929 
0.7728304664 
0.7696607561 
0.8510805068 
1.201875505 
1.141439637 
1.147336433 
1.096559505 
0.9728784483 
0.8398402081 
0.8841736234 
0.8994988863 
0.8480943785 
0.8201865668 
0.7818160631 
0.7301485811 
0.7936152112 
0.8686538531 
0.7656459699 
0.9238552136 
0.7644201694 
0.8274456102 
1.01746531 
0.8891435337 
1.203122588 
1.164589667 
1.207952148 
0.8146034855 
0.7153223347 
0.8004437499 
0.7506925583 
0.8127121419 
1.259514539 
1.237935638 
1.011648485 
1.141787247 
0.9262324552 
0.9175455772 
0.8216169811 
0.8690803948 
0.9081006284 
0.697614141 
0.8268705707 
1.261172033 
1.331984488 
1.081209346 
1.102904825 
0.9021323725 
0.9151988459 
0.9279171703 
0.8540681307 
0.9313954135 
0.7604885183 
0.7419051495 
1.263501746 
1.150320943 
1.068149909 
1.040059414 
0.8374634875 
0.9342986149 
0.8998156337 
0.8526658212 
0.7997221484 
0.8686898696 
0.8715495324 
1.21171979 
1.057740745 
1.044295518 
0.9602166211 
0.9055609567 
0.9045493828 
0.8808083479 
0.8728711966 
0.778646023 
0.8517632159 
0.8870845552 
1.26063951 
1.119183957 
1.12649933 
0.9752901357 
0.9627372997 
0.922336425 
0.8358072186 
0.7726619786 
0.7629698382 
0.7986941874 
0.8249173013 
0.7695729714 
0.7908756872 
0.7021853622 
0.778745471 
0.7840155302 
0.7979219296 
0.7636893965 
0.82137684 
0.6905611559 
0.8905432608 
0.8498772164 
0.8056577366 
0.7829141046 
0.8125692012 
0.8147492523 
0.7829957107 
0.8636624331 
0.7146947388 
0.8029226915 
0.8569105293 
0.7685573707 
0.8004082378 
0.7169692166 
0.7715389883 
0.7374251326 
0.6860214075 
0.7756158323 
0.730782582 
0.8233059617 
0.8022801638 
0.7192515193 
0.7874342607 
0.8592100413 
0.8565656523 
0.8065411849 
0.7477967475 
1.296745153 
1.078869398 
1.07011487 
1.045348153 
0.8994809105 
0.9496336944 
0.8376528006 
0.8302152109 
0.864854779 
0.7679406178 
0.7677908512 
1.274051555 
1.188123231 
1.045468574 
0.9962657876 
1.005937628 
0.8939036862 
0.9558044991 
0.8071819043 
0.8126693858 
0.7785779751 
0.7514935229 
1.351906468 
1.139313675 
0.97497736 
1.027860644 
1.044131723 
0.9300341811 
0.8961427328 
0.8429399747 
0.9684623618 
0.8409675379 
0.8576482863 
1.364519326 
1.131469859 
0.9824181979 
1.07499649 
1.04790273 
0.8996084701 
0.9596476124 
0.8994992025 
0.8037957365 
0.7535654052 
0.7916097161 
1.363702249 
1.242139963 
1.085729295 
1.01018341 
1.015864767 
0.8828021358 
0.8072606871 
0.7659920091 
0.7438436429 
0.8405412238 
0.7942290016 
1.194166166 
1.085742406 
1.098112157 
1.035747062 
0.9596072453 
0.8747300278 
0.8440505924 
0.8713617302 
0.8070867783 
0.7643484684 
0.7575599343 
1.219533791 
1.0286956 
1.118864362 
1.041428689 
1.021342178 
1.01614756 
0.8177833997 
0.9053157697 
0.8045996807 
0.7854738818 
0.9296193967 
1.328380221 
1.058649941 
1.067262457 
1.062753021 
1.016584526 
0.8292819571 
0.9847238704 
0.8799018815 
0.8607228472 
0.8231293654 
0.8499250322 
1.384304149 
1.122340626 
1.041534899 
1.026972966 
0.8896091622 
0.9342853841 
0.8166380551 
0.8589111198 
0.7996582234 
0.7671507471 
0.7541541104 
1.329832171 
1.178482204 
1.185571548 
1.199119789 
0.9830315135 
0.9365962921 
0.8186927658 
0.9461029473 
0.8362699897 
0.8067779427 
0.7813722408 
1.191964717 
1.198982882 
1.197237948 
1.038830975 
0.9093246655 
0.9217161067 
0.86549029 
0.7964602955 
0.8217217633 
0.8051491971 
0.777473286 
1.21224613 
1.25633364 
1.112463359 
1.020637765 
0.9847127807 
0.9134700459 
0.8361719396 
0.8580822573 
0.8805817897 
0.7645638162 
0.7802304559 
1.229575118 
1.165155771 
1.022714601 
1.060563875 
0.9426418888 
0.864285414 
0.8897560654 
0.9048901146 
0.754887805 
0.7881174614 
0.7662719552 
1.266828214 
1.11977327 
0.9919869617 
0.85713249 
0.8441849243 
0.8357387434 
0.776628943 
0.9776758186 
0.8056035157 
0.8582123792 
0.7789854597 
1.23919617 
1.153877216 
1.250657995 
0.970643841 
0.9742273071 
0.9719109881 
0.907294915 
0.8594118282 
0.8033677715 
0.6435340503 
0.8380965245 
1.157690593 
1.200555771 
1.088425907 
0.9094058567 
0.9462055919 
0.9090722327 
0.9066748005 
0.8259441261 
0.8890478805 
0.7743601826 
0.8429510754 
1.14056799 
1.2014416 
1.06760976 
1.041576856 
1.038438011 
0.8637811448 
0.8402830013 
0.885735537 
0.7434054239 
0.7975122864 
0.8197534093 
1.19003645 
1.200812818 
1.070788424 
0.9996032462 
1.007427573 
0.9230016681 
0.8291771125 
0.7348551191 
0.8403122747 
0.8676546568 
0.8438071734 
1.327220666 
1.178285108 
1.085860498 
1.030174332 
0.9060283197 
0.9127519091 
0.8736033772 
0.8706859384 
0.8348330562 
0.7939299407 
0.7959436485 
1.282232371 
1.188928938 
1.073961424 
0.9630319376 
1.028015756 
0.9333749032 
0.7820595036 
0.9068925204 
0.75205641 
0.8519380848 
0.850621074 
1.139352331 
1.217265884 
1.018817876 
1.007123182 
0.9174513795 
1.024161764 
0.896439671 
0.8160877687 
0.8527267934 
0.8105012264 
0.68485242 
1.23770807 
1.18330283 
1.054557311 
1.023427051 
0.9643737204 
0.9285731106 
0.8461414886 
0.8301459881 
0.8825269656 
0.8542159957 
0.7517786456 
1.247259942 
1.136864391 
0.9947961835 
1.079392688 
0.8964869971 
0.8978886119 
0.9102275031 
0.8107849675 
0.7807215303 
0.7296133572 
0.8433165659 
1.243323892 
1.257998454 
1.002797821 
0.951354771 
0.9249707301 
0.8962896198 
0.8473483266 
0.8069741113 
0.8961870856 
0.8002066882 
0.7913353332 
1.309820041 
1.136180823 
1.071637175 
1.076243999 
0.9745040466 
0.8414350889 
0.8576028012 
0.7958021752 
0.8657278332 
0.8130383528 
0.8416907664 
1.292486234 
1.255627861 
1.080772775 
1.054333936 
0.9942705314 
0.954117006 
0.8232845866 
0.8466222276 
0.8829221992 
0.8347504546 
0.8086991216 
1.268500751 
1.217379717 
1.089942996 
1.108571955 
0.8617359921 
0.8364626138 
1.052904448 
0.7761226289 
0.86695099 
0.7672605202 
0.8021238583 
1.171980241 
1.172191176 
1.180763685 
1.000491066 
0.9036473267 
0.8995943634 
0.8997094327 
0.7681089821 
0.7860357574 
0.7107913529 
0.8520298324 
1.345960415 
1.073986184 
1.068774378 
1.095055928 
0.9251779873 
0.8698786559 
0.8696972677 
0.9287365098 
0.9144083935 
0.7287283753 
0.8422256727 
1.192093341 
1.097245451 
1.027182975 
0.8966843804 
0.9333029625 
0.8896963847 
1.021365528 
0.7984583216 
0.8843636647 
0.7420868802 
0.8208493132 
1.318587621 
1.311786015 
1.014402906 
1.032761473 
0.9313955151 
0.9183773799 
0.9252193747 
0.7197866224 
0.7904825839 
0.7821160904 
0.8311670528 
1.228690439 
1.129518768 
1.104797077 
0.9515252147 
1.007768541 
0.8589520946 
0.9594281202 
0.904725991 
0.8699051554 
0.7305819285 
0.8789239654 
1.136524164 
1.160649943 
1.05737439 
0.9727549519 
0.9472750331 
0.8999456532 
0.8966763637 
0.8634510348 
0.8145265501 
0.6974884753 
0.7631220449 
1.258651073 
1.18614913 
1.069409131 
1.069991001 
0.8917562068 
0.9355758878 
0.8945735755 
0.8023665477 
0.8115857364 
0.7563381124 
0.8330413956 
1.162296845 
1.189363532 
1.049830647 
0.9128532161 
0.970566967 
0.9438679294 
0.9553712414 
0.7824890286 
0.8782159532 
0.8534710503 
0.8253972484 
1.227112274 
1.257193205 
1.068684837 
1.011818674 
1.13398874 
0.8444692266 
0.8701711577 
0.7887273623 
0.8005917414 
0.7869714733 
0.7447716966 
SCALARS KDE_ERROR_TAG double 1
LOOKUP_TABLE default
0.0281811696 
0.02790674574 
0.02801469224 
0.02724336178 
0.02687923648 
0.02774680224 
0.02769048332 
0.02717771517 
0.02771828305 
0.02707694138 
0.02743478158 
0.02784155607 
0.02732203055 
0.02730173902 
0.02739860385 
0.02761781447 
0.0286842668 
0.02775264493 
0.02710199557 
0.02790176849 
0.02746400786 
0.0279782932 
0.02743705164 
0.0276050787 
0.02752690033 
0.02803017933 
0.02801784799 
0.02689124401 
0.02760244374 
0.02778887246 
0.02727561139 
0.02730463638 
0.02761105388 
0.02748198053 
0.02766237694 
0.02733857958 
0.02735463694 
0.02792308682 
0.02700454915 
0.02811509845 
0.02771344601 
0.02780333486 
0.0273443218 
0.02845021167 
0.02734812097 
0.02716205042 
0.0267020344 
0.02816252711 
0.0272823923 
0.04164805629 
0.02768432003 
0.02771149855 
0.02849998685 
0.02852044826 
0.02919712082 
0.02843264078 
0.03015191127 
0.0311961973 
0.0322581357 
0.0332147035 
0.0350959559 
0.04506699693 
0.04033802921 
0.04368468783 
0.04248799166 
0.04046109969 
0.03944064349 
0.03416821046 
0.03345759376 
0.03135668621 
0.03150233807 
0.02944844219 
0.03014070856 
0.02904324087 
0.02867516355 
0.02827283003 
0.02832590845 
0.0275687197 
0.02747055883 
0.02805621965 
0.02823393501 
0.02866593821 
0.02909607275 
0.02947256086 
0.03012236505 
0.03206186964 
0.03134558726 
0.03307209825 
0.03451943258 
0.0281669045 
0.02816280543 
0.02861300524 
0.02843736471 
0.02949032411 
0.02941385386 
0.03043670227 
0.0312014485 
0.03198729196 
0.0328435376 
0.03334786758 
0.02733540013 
0.02834508248 
0.02777109475 
0.02882720056 
0.02935628778 
0.0298470385 
0.02997605334 
0.03175366411 
0.03265179846 
0.03281120762 
0.0329919121 
0.02767972108 
0.02798056638 
0.02862778431 
0.02902363117 
0.02877508855 
0.0299458885 
0.03030980733 
0.03103998814 
0.03180847259 
0.03318860175 
0.03470998505 
0.02729013239 
0.02806007837 
0.02838042378 
0.02926619499 
0.02999105642 
0.03066516917 
0.03081586026 
0.03054841991 
0.03168339121 
0.03282742378 
0.03504440748 
0.04303989403 
0.03399991975 
0.03380982422 
0.03151207824 
0.03219606121 
0.03080072395 
0.02958100765 
0.0296301079 
0.02902367438 
0.02857097762 
0.02759974502 
0.02834836172 
0.04084510223 
0.04305887044 
0.04082026219 
0.04482615254 
0.04332855753 
0.02794575366 
0.02823636647 
0.02889772432 
0.02950200096 
0.02981766298 
0.02996964819 
0.02990284554 
0.03048330771 
0.03160647678 
0.03331258886 
0.03392851159 
0.02751389982 
0.02841848301 
0.02927232278 
0.0288305129 
0.02911991538 
0.0298214909 
0.0299216309 
0.03040903003 
0.03089696377 
0.03266834684 
0.0341625664 
0.02739191254 
0.02746489414 
0.02768949853 
0.02945090081 
0.02924122054 
0.02917985601 
0.03080088278 
0.03074339218 
0.03151906415 
0.03330916769 
0.03412987688 
0.02859917742 
0.02800118222 
0.0287403724 
0.02888450018 
0.02908245947 
0.03001537957 
0.03012517508 
0.03133296697 
0.03280881909 
0.03377484448 
0.03501065234 
0.02846755018 
0.02918064701 
0.02793019188 
0.02916819045 
0.02920614919 
0.02920365616 
0.03053394551 
0.03157048331 
0.03180369065 
0.03205215517 
0.03547420884 
0.04208132449 
0.0424075402 
0.04155038941 
0.04286304779 
0.04090715448 
0.04147509046 
0.04206844409 
0.04100198475 
0.04165900648 
0.04055287004 
0.04066032451 
0.04698741782 
0.04427658466 
0.04096593625 
0.04051729864 
0.04017574228 
0.04147863353 
0.0452493888 
0.04199448602 
0.04192486896 
0.04384637205 
0.04351619611 
0.04248672568 
0.04371761925 
0.04565144274 
0.04481838241 
0.04182998946 
0.04240612703 
0.04397968373 
0.04323173092 
0.04694247796 
0.04158777314 
0.04406749608 
0.04312560098 
0.04082479485 
0.04632235352 
0.02775601929 
0.02733562218 
0.02915932373 
0.0291195373 
0.02886737391 
0.02968461753 
0.03067632439 