# vtk DataFile Version 3.0
MOAB 4.9.0
ASCII
DATASET UNSTRUCTURED_GRID
POINTS 1225 double
0 -0.5 0.5
0 0.5 0.5
0 -0.3333333333 0.5
0 -0.1666666667 0.5
0 0 0.5
0 0.1666666667 0.5
0 0.3333333333 0.5
0 0.5 -0.5
0 0.5 0.3333333333
0 0.5 0.1666666667
0 0.5 0
0 0.5 -0.1666666667
0 0.5 -0.3333333333
0 -0.5 -0.5
0 0.3333333333 -0.5
0 0.1666666667 -0.5
0 0 -0.5
0 -0.1666666667 -0.5
0 -0.3333333333 -0.5
0 -0.5 -0.3333333333
0 -0.5 -0.1666666667
0 -0.5 0
0 -0.5 0.1666666667
0 -0.5 0.3333333333
0 -0.3333333333 0.3333333333
0 -0.1666666667 0.3333333333
0 -6.938893904e-18 0.3333333333
0 0.1666666667 0.3333333333
0 0.3333333333 0.3333333333
0 -0.3333333333 0.1666666667
0 -0.1666666667 0.1666666667
0 -1.387778781e-17 0.1666666667
0 0.1666666667 0.1666666667
0 0.3333333333 0.1666666667
0 -0.3333333333 0
0 -0.1666666667 0
0 0 0
0 0.1666666667 0
0 0.3333333333 0
0 -0.3333333333 -0.1666666667
0 -0.1666666667 -0.1666666667
0 0 -0.1666666667
0 0.1666666667 -0.1666666667
0 0.3333333333 -0.1666666667
0 -0.3333333333 -0.3333333333
0 -0.1666666667 -0.3333333333
0 0 -0.3333333333
0 0.1666666667 -0.3333333333
0 0.3333333333 -0.3333333333
2.5 -0.5 -0.5
0.2083333333 -0.5 -0.5
0.4166666667 -0.5 -0.5
0.625 -0.5 -0.5
0.8333333333 -0.5 -0.5
1.041666667 -0.5 -0.5
1.25 -0.5 -0.5
1.458333333 -0.5 -0.5
1.666666667 -0.5 -0.5
1.875 -0.5 -0.5
2.083333333 -0.5 -0.5
2.291666667 -0.5 -0.5
2.5 -0.5 0.5
2.5 -0.5 0.3333333333
2.5 -0.5 0.1666666667
2.5 -0.5 0
2.5 -0.5 -0.1666666667
2.5 -0.5 -0.3333333333
2.291666667 -0.5 0.5
2.083333333 -0.5 0.5
1.875 -0.5 0.5
1.666666667 -0.5 0.5
1.458333333 -0.5 0.5
1.25 -0.5 0.5
1.041666667 -0.5 0.5
0.8333333333 -0.5 0.5
0.625 -0.5 0.5
0.4166666667 -0.5 0.5
0.2083333333 -0.5 0.5
0.2083333333 -0.5 -0.3333333333
0.4166666667 -0.5 -0.3333333333
0.625 -0.5 -0.3333333333
0.8333333333 -0.5 -0.3333333333
1.041666667 -0.5 -0.3333333333
1.25 -0.5 -0.3333333333
1.458333333 -0.5 -0.3333333333
1.666666667 -0.5 -0.3333333333
1.875 -0.5 -0.3333333333
2.083333333 -0.5 -0.3333333333
2.291666667 -0.5 -0.3333333333
0.2083333333 -0.5 -0.1666666667
0.4166666667 -0.5 -0.1666666667
0.625 -0.5 -0.1666666667
0.8333333333 -0.5 -0.1666666667
1.041666667 -0.5 -0.1666666667
1.25 -0.5 -0.1666666667
1.458333333 -0.5 -0.1666666667
1.666666667 -0.5 -0.1666666667
1.875 -0.5 -0.1666666667
2.083333333 -0.5 -0.1666666667
2.291666667 -0.5 -0.1666666667
0.2083333333 -0.5 0
0.4166666667 -0.5 0
0.625 -0.5 0
0.8333333333 -0.5 0
1.041666667 -0.5 0
1.25 -0.5 0
1.458333333 -0.5 0
1.666666667 -0.5 0
1.875 -0.5 0
2.083333333 -0.5 0
2.291666667 -0.5 0
0.2083333333 -0.5 0.1666666667
0.4166666667 -0.5 0.1666666667
0.625 -0.5 0.1666666667
0.8333333333 -0.5 0.1666666667
1.041666667 -0.5 0.1666666667
1.25 -0.5 0.1666666667
1.458333333 -0.5 0.1666666667
1.666666667 -0.5 0.1666666667
1.875 -0.5 0.1666666667
2.083333333 -0.5 0.1666666667
2.291666667 -0.5 0.1666666667
0.2083333333 -0.5 0.3333333333
0.4166666667 -0.5 0.3333333333
0.625 -0.5 0.3333333333
0.8333333333 -0.5 0.3333333333
1.041666667 -0.5 0.3333333333
1.25 -0.5 0.3333333333
1.458333333 -0.5 0.3333333333
1.666666667 -0.5 0.3333333333
1.875 -0.5 0.3333333333
2.083333333 -0.5 0.3333333333
2.291666667 -0.5 0.3333333333
2.5 0.5 -0.5
2.291666667 0.5 -0.5
2.083333333 0.5 -0.5
1.875 0.5 -0.5
1.666666667 0.5 -0.5
1.458333333 0.5 -0.5
1.25 0.5 -0.5
1.041666667 0.5 -0.5
0.8333333333 0.5 -0.5
0.625 0.5 -0.5
0.4166666667 0.5 -0.5
0.2083333333 0.5 -0.5
2.5 -0.3333333333 -0.5
2.5 -0.1666666667 -0.5
2.5 0 -0.5
2.5 0.1666666667 -0.5
2.5 0.3333333333 -0.5
0.2083333333 0.3333333333 -0.5
0.4166666667 0.3333333333 -0.5
0.625 0.3333333333 -0.5
0.8333333333 0.3333333333 -0.5
1.041666667 0.3333333333 -0.5
1.25 0.3333333333 -0.5
1.458333333 0.3333333333 -0.5
1.666666667 0.3333333333 -0.5
1.875 0.3333333333 -0.5
2.083333333 0.3333333333 -0.5
2.291666667 0.3333333333 -0.5
0.2083333333 0.1666666667 -0.5
0.4166666667 0.1666666667 -0.5
0.625 0.1666666667 -0.5
0.8333333333 0.1666666667 -0.5
1.041666667 0.1666666667 -0.5
1.25 0.1666666667 -0.5
1.458333333 0.1666666667 -0.5
1.666666667 0.1666666667 -0.5
1.875 0.1666666667 -0.5
2.083333333 0.1666666667 -0.5
2.291666667 0.1666666667 -0.5
0.2083333333 0 -0.5
0.4166666667 0 -0.5
0.625 0 -0.5
0.8333333333 0 -0.5
1.041666667 0 -0.5
1.25 0 -0.5
1.458333333 0 -0.5
1.666666667 0 -0.5
1.875 0 -0.5
2.083333333 0 -0.5
2.291666667 0 -0.5
0.2083333333 -0.1666666667 -0.5
0.4166666667 -0.1666666667 -0.5
0.625 -0.1666666667 -0.5
0.8333333333 -0.1666666667 -0.5
1.041666667 -0.1666666667 -0.5
1.25 -0.1666666667 -0.5
1.458333333 -0.1666666667 -0.5
1.666666667 -0.1666666667 -0.5
1.875 -0.1666666667 -0.5
2.083333333 -0.1666666667 -0.5
2.291666667 -0.1666666667 -0.5
0.2083333333 -0.3333333333 -0.5
0.4166666667 -0.3333333333 -0.5
0.625 -0.3333333333 -0.5
0.8333333333 -0.3333333333 -0.5
1.041666667 -0.3333333333 -0.5
1.25 -0.3333333333 -0.5
1.458333333 -0.3333333333 -0.5
1.666666667 -0.3333333333 -0.5
1.875 -0.3333333333 -0.5
2.083333333 -0.3333333333 -0.5
2.291666667 -0.3333333333 -0.5
2.5 0.5 0.5
2.5 0.5 -0.3333333333
2.5 0.5 -0.1666666667
2.5 0.5 0
2.5 0.5 0.1666666667
2.5 0.5 0.3333333333
2.5 0.3333333333 0.5
2.5 0.1666666667 0.5
2.5 0 0.5
2.5 -0.1666666667 0.5
2.5 -0.3333333333 0.5
2.5 0.3333333333 -0.3333333333
2.5 0.3333333333 -0.1666666667
2.5 0.3333333333 -6.938893904e-18
2.5 0.3333333333 0.1666666667
2.5 0.3333333333 0.3333333333
2.5 0.1666666667 -0.3333333333
2.5 0.1666666667 -0.1666666667
2.5 0.1666666667 -1.387778781e-17
2.5 0.1666666667 0.1666666667
2.5 0.1666666667 0.3333333333
2.5 0 -0.3333333333
2.5 0 -0.1666666667
2.5 0 0
2.5 0 0.1666666667
2.5 0 0.3333333333
2.5 -0.1666666667 -0.3333333333
2.5 -0.1666666667 -0.1666666667
2.5 -0.1666666667 0
2.5 -0.1666666667 0.1666666667
2.5 -0.1666666667 0.3333333333
2.5 -0.3333333333 -0.3333333333
2.5 -0.3333333333 -0.1666666667
2.5 -0.3333333333 0
2.5 -0.3333333333 0.1666666667
2.5 -0.3333333333 0.3333333333
0.2083333333 0.5 0.5
0.4166666667 0.5 0.5
0.625 0.5 0.5
0.8333333333 0.5 0.5
1.041666667 0.5 0.5
1.25 0.5 0.5
1.458333333 0.5 0.5
1.666666667 0.5 0.5
1.875 0.5 0.5
2.083333333 0.5 0.5
2.291666667 0.5 0.5
0.2083333333 -0.3333333333 0.5
0.4166666667 -0.3333333333 0.5
0.625 -0.3333333333 0.5
0.8333333333 -0.3333333333 0.5
1.041666667 -0.3333333333 0.5
1.25 -0.3333333333 0.5
1.458333333 -0.3333333333 0.5
1.666666667 -0.3333333333 0.5
1.875 -0.3333333333 0.5
2.083333333 -0.3333333333 0.5
2.291666667 -0.3333333333 0.5
0.2083333333 -0.1666666667 0.5
0.4166666667 -0.1666666667 0.5
0.625 -0.1666666667 0.5
0.8333333333 -0.1666666667 0.5
1.041666667 -0.1666666667 0.5
1.25 -0.1666666667 0.5
1.458333333 -0.1666666667 0.5
1.666666667 -0.1666666667 0.5
1.875 -0.1666666667 0.5
2.083333333 -0.1666666667 0.5
2.291666667 -0.1666666667 0.5
0.2083333333 0 0.5
0.4166666667 0 0.5
0.625 0 0.5
0.8333333333 0 0.5
1.041666667 0 0.5
1.25 0 0.5
1.458333333 0 0.5
1.666666667 0 0.5
1.875 0 0.5
2.083333333 0 0.5
2.291666667 0 0.5
0.2083333333 0.1666666667 0.5
0.4166666667 0.1666666667 0.5
0.625 0.1666666667 0.5
0.8333333333 0.1666666667 0.5
1.041666667 0.1666666667 0.5
1.25 0.1666666667 0.5
1.458333333 0.1666666667 0.5
1.666666667 0.1666666667 0.5
1.875 0.1666666667 0.5
2.083333333 0.1666666667 0.5
2.291666667 0.1666666667 0.5
0.2083333333 0.3333333333 0.5
0.4166666667 0.3333333333 0.5
0.625 0.3333333333 0.5
0.8333333333 0.3333333333 0.5
1.041666667 0.3333333333 0.5
1.25 0.3333333333 0.5
1.458333333 0.3333333333 0.5
1.666666667 0.3333333333 0.5
1.875 0.3333333333 0.5
2.083333333 0.3333333333 0.5
2.291666667 0.3333333333 0.5
0.2083333333 0.5 0.3333333333
0.4166666667 0.5 0.3333333333
0.625 0.5 0.3333333333
0.8333333333 0.5 0.3333333333
1.041666667 0.5 0.3333333333
1.25 0.5 0.3333333333
1.458333333 0.5 0.3333333333
1.666666667 0.5 0.3333333333
1.875 0.5 0.3333333333
2.083333333 0.5 0.3333333333
2.291666667 0.5 0.3333333333
0.2083333333 0.5 0.1666666667
0.4166666667 0.5 0.1666666667
0.625 0.5 0.1666666667
0.8333333333 0.5 0.1666666667
1.041666667 0.5 0.1666666667
1.25 0.5 0.1666666667
1.458333333 0.5 0.1666666667
1.666666667 0.5 0.1666666667
1.875 0.5 0.1666666667
2.083333333 0.5 0.1666666667
2.291666667 0.5 0.1666666667
0.2083333333 0.5 0
0.4166666667 0.5 0
0.625 0.5 0
0.8333333333 0.5 0
1.041666667 0.5 0
1.25 0.5 0
1.458333333 0.5 0
1.666666667 0.5 0
1.875 0.5 0
2.083333333 0.5 0
2.291666667 0.5 0
0.2083333333 0.5 -0.1666666667
0.4166666667 0.5 -0.1666666667
0.625 0.5 -0.1666666667
0.8333333333 0.5 -0.1666666667
1.041666667 0.5 -0.1666666667
1.25 0.5 -0.1666666667
1.458333333 0.5 -0.1666666667
1.666666667 0.5 -0.1666666667
1.875 0.5 -0.1666666667
2.083333333 0.5 -0.1666666667
2.291666667 0.5 -0.1666666667
0.2083333333 0.5 -0.3333333333
0.4166666667 0.5 -0.3333333333
0.625 0.5 -0.3333333333
0.8333333333 0.5 -0.3333333333
1.041666667 0.5 -0.3333333333
1.25 0.5 -0.3333333333
1.458333333 0.5 -0.3333333333
1.666666667 0.5 -0.3333333333
1.875 0.5 -0.3333333333
2.083333333 0.5 -0.3333333333
2.291666667 0.5 -0.3333333333
0.2083333333 -0.3333333333 -0.3333333333
0.4166666667 -0.3333333333 -0.3333333333
0.625 -0.3333333333 -0.3333333333
0.8333333333 -0.3333333333 -0.3333333333
1.041666667 -0.3333333333 -0.3333333333
1.25 -0.3333333333 -0.3333333333
1.458333333 -0.3333333333 -0.3333333333
1.666666667 -0.3333333333 -0.3333333333
1.875 -0.3333333333 -0.3333333333
2.083333333 -0.3333333333 -0.3333333333
2.291666667 -0.3333333333 -0.3333333333
0.2083333333 -0.1666666667 -0.3333333333
0.4166666667 -0.1666666667 -0.3333333333
0.625 -0.1666666667 -0.3333333333
0.8333333333 -0.1666666667 -0.3333333333
1.041666667 -0.1666666667 -0.3333333333
1.25 -0.1666666667 -0.3333333333
1.458333333 -0.1666666667 -0.3333333333
1.666666667 -0.1666666667 -0.3333333333
1.875 -0.1666666667 -0.3333333333
2.083333333 -0.1666666667 -0.3333333333
2.291666667 -0.1666666667 -0.3333333333
0.2083333333 0 -0.3333333333
0.4166666667 1.387778781e-17 -0.3333333333
0.625 -1.387778781e-17 -0.3333333333
0.8333333333 -1.387778781e-17 -0.3333333333
1.041666667 5.551115123e-17 -0.3333333333
1.25 1.387778781e-17 -0.3333333333
[...]
POINT_DATA 1225
SCALARS KDE_TALLY_TAG double 1
LOOKUP_TABLE default
7.295888337 
7.875295685 
7.736238635 
7.813833336 
7.635251479 
8.014058968 
7.416360672 
7.185206611 
7.789249188 
7.338836919 
7.803134628 
7.956917597 
7.726808107 
8.197185695 
7.491549338 
8.0625399 
7.722262347 
8.477111955 
8.221850382 
7.308075816 
7.61710367 
7.917169551 
7.762401614 
8.055669028 
7.457927972 
7.976279743 
7.715150335 
8.39927747 
8.098135551 
7.528647471 
7.483343304 
7.914656448 
7.679422608 
7.481454058 
7.5197703 
7.434486128 
7.749423273 
7.807265958 
7.640011058 
8.951672684 
7.551046459 
7.61589095 
7.687008294 
7.768156766 
7.296734001 
8.206744125 
7.846911401 
7.430916808 
7.700070199 
1.409026061 
6.806437323 
6.292502669 
5.345992134 
4.744063701 
4.202131568 
3.868330101 
3.120122234 
2.776174889 
2.572606965 
2.330286453 
2.47974093 
1.414233542 
1.493960805 
1.576915572 
1.603351518 
1.557016319 
1.576692689 
2.458592292 
2.607802993 
2.881566637 
2.81265996 
3.262058242 
3.768503383 
4.263084651 
4.896079781 
5.345854285 
6.295048387 
6.890701664 
6.831063509 
5.925315807 
5.360437526 
4.481168484 
4.239952198 
3.565855282 
2.900601235 
2.721682741 
2.792716736 
2.713034943 
2.537448311 
6.748586154 
6.047688297 
5.073101946 
4.861932848 
3.908502055 
3.611493139 
3.151138084 
2.801628946 
2.686613375 
2.615390637 
2.693329354 
6.937640229 
6.112788259 
5.128510193 
4.750804934 
4.036095971 
3.699790616 
3.340751846 
2.977253558 
2.490268169 
2.575837433 
2.691796779 
6.958047273 
5.783507199 
5.198083401 
4.418505383 
4.148840558 
3.562262764 
2.951352334 
2.611422993 
2.448439011 
2.401198928 
2.436863327 
7.274512953 
6.654842116 
5.841521988 
5.148595978 
4.455543581 
3.898408123 
3.436428615 
3.10135337 
2.789541989 
2.718759653 
2.542344805 
1.474265 
2.690996725 
2.73340629 
2.6553852 
2.863900711 
3.077849928 
3.822048072 
4.162383633 
4.768577859 
5.297449308 
5.942709697 
6.861050967 
1.467568192 
1.591400802 
1.528873215 
1.414726606 
1.65494294 
6.812224297 
5.946381954 
5.436949666 
4.945296921 
4.501833681 
3.983720752 
3.40762586 
3.148218388 
2.678833256 
2.586181481 
2.936122659 
6.980659313 
6.041370499 
5.668407865 
5.04868826 
4.253057885 
3.959281987 
3.453672569 
3.167374349 
3.00387844 
2.772501387 
2.896716442 
6.852405369 
5.854041799 
5.403581474 
5.06501671 
4.198793789 
3.995588271 
3.615798757 
3.291268971 
3.00623722 
2.834134957 
2.720227554 
7.43791634 
6.19391929 
5.734396422 
4.735880225 
4.116946997 
3.937875113 
3.170003694 
2.991560326 
2.819117148 
2.815721259 
2.686089028 
6.99025271 
6.163053789 
5.457171366 
5.077094322 
4.394424635 
3.803706439 
3.20366136 
2.918482471 
2.574887876 
2.546826659 
2.755982819 
1.533574139 
1.712847929 
1.447130593 
1.446198274 
1.56296126 
1.588395517 
1.432268446 
1.499526114 
1.701527479 
1.648980807 
1.569300883 
1.578398948 
1.666897167 
1.45513656 
1.544810573 
1.584289544 
1.568683325 
1.522619669 
1.646841168 
1.601561578 
1.678978594 
1.722870952 
1.52927286 
1.470051157 
1.549101645 
1.516408763 
1.520734658 
1.586528826 
1.482645186 
1.667919539 
1.63997233 
1.553893736 
1.541828617 
1.558893641 
1.47208429 
1.834953394 
6.981827037 
6.281271636 
5.400333767 
4.667058101 
4.140901155 
3.759609279 
3.123141341 
3.206456777 
2.867501613 
2.598729528 
2.623707443 
6.792694446 
6.343407111 
5.693736735 
5.018513373 
4.219590754 
3.513806644 
3.300091915 
3.063415843 
2.732025199 
2.728408476 
2.615444871 
6.94041867 
6.157177162 
5.780900008 
4.779063885 
4.041622464 
3.685508377 
2.931590913 
2.820401758 
2.467078923 
2.448342759 
2.697541838 
7.00032206 
6.416399839 
5.816587288 
4.85433691 
4.275962416 
3.615878889 
2.952161927 
2.704433066 
2.931040997 
2.723622688 
2.571277153 
7.268183283 
6.198025833 
5.318964893 
4.918995119 
4.357328106 
3.783945557 
3.45076353 
3.090340952 
2.655911309 
2.557152813 
2.536856413 
6.633769677 
5.82187313 
5.150617138 
4.649203687 
4.022531218 
3.513093843 
2.992604963 
3.090359568 
2.561488586 
2.632397858 
2.352792653 
7.10711564 
6.487761232 
5.239932743 
4.573122036 
4.204127522 
3.551689991 
3.200745934 
3.05592969 
2.802674319 
2.706503257 
2.570003204 
6.752570498 
5.748384628 
5.186350052 
4.9184745 
3.943234473 
3.525483266 
3.160178631 
2.861690468 
2.670496293 
2.601552456 
2.590138479 
6.85094689 
6.072488161 
5.294624327 
4.845269858 
4.179151879 
3.799529086 
3.66964113 
3.366723205 
2.734133534 
2.705178385 
2.700911453 
7.117037517 
6.271091002 
5.73822599 
4.89673195 
4.672901879 
4.227560053 
3.566196013 
3.388999373 
3.241232327 
2.836222112 
2.936527653 
6.982246528 
6.415533336 
5.732391615 
5.424941026 
4.65464429 
4.024772213 
3.344078438 
2.968537986 
2.773010884 
2.576306673 
2.759121679 
6.437692705 
5.986343473 
5.579851481 
4.751658287 
3.956947239 
3.595111222 
3.03978699 
2.763217557 
2.682311122 
2.602518626 
2.72095375 
7.090966652 
6.465030152 
5.621760762 
4.973941549 
4.256635614 
3.708822513 
3.485939499 
3.0743132 
3.00427641 
2.710649532 
2.944106428 
6.973439933 
5.761129781 
5.209244898 
4.900122951 
4.27562394 
3.911319018 
3.96108619 
3.222434604 
2.813254323 
2.775332139 
2.477886674 
6.457040307 
5.916348036 
5.324439191 
4.56438172 
4.275812485 
3.5739544 
3.285174372 
3.04843637 
2.649454404 
2.696982456 
2.746720292 
7.200288477 
6.418080629 
5.636562285 
4.99530212 
4.112783965 
3.845427982 
3.300859254 
3.152242085 
2.790698565 
2.518474749 
2.763939136 
7.260276924 
6.857664363 
6.160226688 
5.435335646 
4.760420139 
4.357942345 
3.638473503 
3.294967299 
3.182191806 
2.695075414 
2.723796154 
6.980893207 
6.245176248 
5.411409551 
4.58325579 
4.095083678 
3.34130888 
3.020287466 
2.870567581 
2.610977537 
2.541339415 
2.743693679 
6.953494597 
6.338790392 
5.290221642 
4.645904202 
4.32168985 
3.490674589 
3.383662668 
2.83637651 
2.511331052 
2.484538241 
2.831405138 
7.145982375 
6.358384425 
5.660379204 
4.907550767 
4.184238683 
3.507578668 
3.540739924 
2.94294959 
2.875353284 
2.587430952 
2.527032474 
6.761152747 
6.29042575 
5.584168992 
4.947537729 
4.221070319 
3.939260811 
3.656050058 
3.159835877 
2.849115714 
2.7406613 
2.925930182 
6.825739721 
6.424439026 
5.748940833 
4.809189619 
4.372180913 
3.735972494 
3.268182298 
3.055733678 
2.701555006 
2.7123814 
2.670663435 
6.66831903 
5.613523793 
4.930981601 
4.320006865 
3.953110613 
3.509521417 
3.041288869 
2.684608601 
2.757396148 
2.531882324 
2.481111053 
6.952603174 
6.186244384 
5.469488346 
4.76542321 
4.073081744 
3.480417144 
3.061105895 
2.849040557 
2.55047179 
2.52621022 
2.811337734 
7.08469792 
6.491911747 
5.734470702 
5.024636931 
4.37147738 
3.818652668 
3.258552961 
3.023635707 
2.915806728 
2.774434988 
2.564101994 
6.708385875 
5.915843025 
4.968928178 
4.57806914 
4.147226024 
3.67433191 
3.36799236 
3.16495873 
2.757171448 
2.692837722 
2.995916737 
6.709031633 
6.173848703 
5.252121702 
4.536246471 
4.055247985 
3.903555223 
3.104471889 
2.857002565 
2.784771134 
2.60401228 
2.777224164 
6.639679204 
6.032032526 
5.366948171 
4.587949652 
4.100166211 
3.568967825 
3.350790984 
3.140242429 
2.621406318 
2.572517942 
2.657769806 
7.0407484 
6.417913078 
5.82001108 
4.901437463 
4.577126711 
3.968409045 
3.487095545 
3.347604761 
3.143837114 
2.415741534 
2.693608041 
7.067358583 
6.196607921 
5.733937217 
4.950140016 
4.539563713 
4.176904412 
3.658664874 
3.370187063 
2.952722184 
2.759993837 
2.431968799 
6.702390007 
5.753804315 
5.02422602 
4.176002662 
3.974987372 
3.62153906 
3.643961525 
2.845769567 
2.472969281 
2.594183562 
2.719597748 
6.748063417 
5.666872993 
5.175875663 
4.67070838 
4.162916068 
3.239596149 
3.060519946 
3.054345773 
2.67312025 
2.557650514 
2.51787736 
6.959221901 
6.101727517 
5.738023414 
4.770945149 
4.317668669 
3.870908176 
3.576496841 
3.1373006 
2.931510351 
2.85530961 
2.795059378 
6.905970189 
6.381854603 
5.378337922 
4.83244094 
4.331279436 
3.618039541 
3.346748898 
3.058343185 
2.795884234 
2.717458578 
2.816362397 
6.981788532 
6.685059082 
5.626384016 
5.030134589 
4.343885291 
3.751382755 
3.530887554 
3.043393767 
3.060217322 
2.720589616 
2.936251548 
7.057690272 
6.457631756 
5.394318472 
4.729970922 
4.109044063 
4.048510882 
3.34922537 
3.005844451 
2.836293899 
2.787568995 
2.700417027 
0.1395542433 
0.2196523419 
0.1855248965 
0.2964412661 
0.1860604804 
0.1487659305 
0.1537622155 
0.1532409902 
0.1310291085 
0.2810963499 
0.1571517215 
0.1553209145 
0.13579716 
0.1410851295 
0.123379647 
0.1183270845 
0.1321994193 
0.1310422829 
0.1840660629 
0.1455314311 
0.141018935 
0.1373792079 
0.1370104879 
0.2181042675 
0.1419288377 
0.155190744 
0.177399176 
0.1637564045 
0.2235049726 
0.1940852681 
0.1733224743 
0.1792273981 
0.1982837661 
0.1516506205 
0.1452524334 
0.1408287871 
0.1276418735 
0.1874124622 
0.1423018624 
0.1324090013 
0.192313188 
0.1697585854 
0.2787704881 
0.1531143961 
0.1528196652 
0.1657647963 
0.2505431151 
0.1235179843 
0.1328032532 
0.1464758554 
0.2422823091 
0.2084532402 
0.1896627938 
0.1988065928 
0.1638871981 
0.2446151221 
0.1408426008 
0.1886572013 
0.1857979213 
0.1531814552 
0.1208413369 
0.1441787472 
0.1932126775 
0.1686940211 
0.1548005007 
0.165382505 
0.1504244189 
0.1381642284 
0.1259694741 
0.1515169926 
0.2015792301 
0.1476789479 
0.1394412635 
0.1871979809 
0.1772938471 
0.1715411557 
0.1663120244 
0.1654698227 
0.1455405492 
0.1329443141 
0.1392964683 
0.1432570676 
0.1442598176 
0.1750952036 
0.1309173414 
0.133880428 
0.1436634832 
0.1274604223 
0.1434907149 
0.1361101922 
0.1518449771 
0.1691494229 
0.1460763295 
0.1668311246 
0.1793641006 
0.2671549142 
0.1303883084 
0.1401788272 
0.158959671 
0.2235389967 
0.2116437476 
0.1936904509 
0.1858245773 
0.1660283282 
0.1821213478 
0.1472952417 
0.148897294 
0.1495030938 
0.1421133959 
0.1430064309 
0.1440991894 
0.1478991632 
0.1733480647 
0.1964875627 
0.1879586941 
0.2310637532 
0.2451721013 
0.1572014074 
0.1879580373 
0.1514423887 
0.1424496431 
0.2512561916 
0.1289296655 
0.198269067 
0.2048353253 
0.2410781738 
0.3028682149 
0.1623459258 
0.1721955788 
0.1349038291 
0.1660870152 
0.2126956322 
0.147988015 
0.1282371607 
0.1879641994 
0.1836788823 
0.1763958932 
0.2626402575 
0.1547931279 
0.1980554676 
0.1522192277 
0.1420063976 
0.2841542537 
0.1429342865 
0.1346471543 
0.2430104527 
0.1833866567 
0.1749663225 
0.1781562056 
0.1574398404 
0.1506952649 
0.1786703177 
0.1520525501 
0.1271470071 
0.2183813879 
0.1285146516 
0.1371984485 
0.1306470495 
0.1271461724 
0.1352126455 
0.1306002986 
0.1280294723 
0.1731668954 
0.1415742287 
0.2892370277 
0.2198298246 
0.1406219904 
0.1324410018 
0.1267594946 
0.1438896301 
0.2256518333 
0.2439165938 
0.135898115 
0.1449569693 
0.1518057543 
0.1934144784 
0.1612214192 
0.1477051305 
0.1315307144 
0.1894031459 
0.1180448033 
0.1270714627 
0.1589300636 
0.1247946934 
0.1356728529 
0.1159382913 
0.1380462517 
0.1433599089 
0.1364684799 
0.1294734528 
0.1285023253 
0.1409419365 
0.1972087163 
0.1817887859 
0.2221703684 
0.171129979 
0.2180588467 
0.1707010168 
0.1473247777 
0.1805767238 
0.147913336 
0.1358296265 
0.1650900623 
0.212665428 
0.1970974109 
0.182666607 
0.3215156724 
0.1980187254 
0.1956422916 
0.1279525294 
0.128731235 
0.138615025 
0.1356604565 
0.2294468477 
0.190562315 
0.1749472698 
0.1746297355 
0.2182667689 
0.4034289533 
0.1574365807 
0.1408631957 
0.1454038814 
0.1355081161 
0.1474769095 
0.1415824216 
0.2457802354 
0.1871117664 
0.1719377209 
0.1800955787 
0.1665228582 
0.156442266 
0.1565025625 
0.1370260177 
0.157800847 
0.1316097387 
0.1416359386 
0.2989584438 
0.1652046882 
0.2073838954 
0.1727663073 
0.173298976 
0.1502223235 
0.1544826424 
0.1398533164 
0.215940588 
0.1431206933 
0.1280298981 
0.214850903 
0.1569799427 
0.1784294386 
0.1756394147 
0.2136604247 
0.1536444318 
0.2127390811 
0.135714195 
0.1604715839 
0.1290229134 
0.1361110946 
0.1944806441 
0.2325262103 
0.17092123 
0.1715757593 
0.2889463771 
0.1584481913 
0.1420387909 
0.1346389973 
0.2001915441 
0.1377082774 
0.1441767186 
0.1925220243 
0.1620848365 
0.1736008038 
0.1517504981 
0.1824819363 
0.144633326 
0.1461794098 
0.189431487 
0.1417979421 
0.1270505709 
0.1624191386 
0.1892403976 
0.1671687086 
0.1701561782 
0.1619271186 
0.1466517752 
0.1719720307 
0.1413291256 
0.1904173727 
0.1450069777 
0.2381378514 
0.148058481 
0.2081090849 
0.1745067407 
0.1810535592 
0.1935769063 
0.1571627757 
0.1575352367 
0.1551368581 
0.1783660529 
0.1533369452 
0.2457999941 
0.126478366 
0.2064800907 
0.1790441677 
0.1678301062 
0.2592494405 
0.1491756822 
0.1583436895 
0.1429931868 
0.1417247739 
0.1465596077 
0.1311448807 
0.1243770172 
0.3337855811 
0.2139118384 
0.1741994838 
0.1750447787 
0.1740198255 
0.1714247857 
0.1540643808 
0.1393769609 
0.1492876713 
0.2189395197 
0.1292909921 
0.2068184308 
0.1967914253 
0.1669382831 
0.1912852776 
0.1996664696 
0.1586575062 
0.1409351839 
0.1505624238 
0.1547924628 
0.1621700536 
0.1320594695 
0.2144348159 
0.1905367958 
0.1813035108 
0.2898149884 
0.1516983912 
0.3032654274 
0.151336766 
0.2161052877 
0.2239652831 
0.1365545804 
0.1428358801 
0.2383705323 
0.1751973708 
0.1647259937 
0.2327590299 
0.175708624 
0.1402848692 
0.1406013566 
0.2719875414 
0.1969045554 
0.1796943824 
0.2232887585 
0.2326831431 
0.1790665598 
0.1709744568 
0.1749126459 
0.16068043 
0.1444732707 
0.158615699 
0.1217238281 
0.139409204 
0.1440749797 
0.2248904784 
0.188044611 
0.1821976397 
0.1731085282 
0.1640704179 
0.1730395357 
0.1827683266 
0.1520378468 
0.1510287503 
0.1379590942 
0.325166075 
0.2009706424 
0.2245297641 
0.1759990499 
0.1628969107 
0.3581573758 
0.1670046364 
0.15633113 
0.1302138361 
0.147530585 
0.1366448074 
0.2165053896 
0.1210011684 
0.2069841216 
0.1805081355 
0.175965166 
0.1970683155 
0.1663820606 
0.1577259005 
0.1336682135 
0.1375456616 
0.1455656211 
0.1400019332 
0.1413945845 
0.2173739086 
0.1748690374 
0.17156161 
0.179939157 
0.175989648 
0.1516970383 
0.1390479785 
0.123817878 
0.1278348315 
0.136503751 
0.1856155794 
0.2216134736 
0.1707814974 
0.1616405338 
0.1631683381 
0.1501101111 
0.2267523216 
0.1926837465 
0.1696470187 
0.1482157382 
0.1591362448 
0.228869957 
0.1901677311 
0.209141108 
0.1673658191 
0.299570984 
0.1603104736 
0.2005988678 
0.1365347097 
0.1626492145 
0.1525004835 
0.1460935945 
0.1265937045 
0.2211532335 
0.1972798171 
0.1819651248 
0.1892050018 
0.1538697975 
0.1572890965 
0.1496037687 
0.148182739 
0.1415728069 
0.1697253057 
0.1310062899 
0.1852058617 
0.1763534232 
0.2113753032 
0.2442737244 
0.1617354953 
0.1508137896 
0.1667425545 
0.158290746 
0.1324577191 
0.1254534938 
0.1437319637 
0.2071645908 
0.1845635132 
0.1712156465 
0.1535651614 
0.1416467309 
0.1531475068 
0.1360817174 
0.1248575227 
0.1280238901 
0.1377142161 
0.1282212773 
0.3427276137 
0.1934182607 
0.1528605671 
0.1569085775 
0.1600471899 
0.1552108654 
0.1388493385 
0.1458609262 
0.1824043549 
0.1315318337 
0.1415728255 
0.2035375413 
0.1891429164 
0.173511114 
0.2004255189 
0.1572664164 
0.2172142844 
0.2341734382 
0.3016365747 
0.144519064 
0.134928711 
0.129769674 
0.1905710539 
0.1909196104 
0.2114229278 
0.2601788777 
0.1646784276 
0.1893852488 
0.249042239 
0.1593589001 
0.153061126 
0.1271639116 
0.1253914369 
0.2007072668 
0.196176087 
0.1765721596 
0.226628981 
0.1611272402 
0.1737845822 
0.1931642148 
0.1613054843 
0.1413608349 
0.2511351194 
0.1388116262 
0.1906370658 
0.175025541 
0.1879091024 
0.1722577028 
0.1401906007 
0.1507690376 
0.1549691406 
0.1974894486 
0.1358503189 
0.2187801942 
0.1452918542 
0.2577864877 
0.1930624981 
0.1679260673 
0.1685990767 
0.1975602497 
0.1642931439 
0.2112326109 
0.1497654914 
0.1324123633 
0.1466345934 
0.2493547727 
0.1901538657 
0.1857242497 
0.1606515218 
0.2126792903 
0.1639373555 
0.1425082047 
0.1377289401 
0.1718002171 
0.1335309421 
0.1452609469 
0.1390820572 
0.185530067 
0.172877173 
0.170537896 
0.1750713604 
0.1663020829 
0.1828841404 
0.1396693961 
0.1979170843 
0.2431505569 
0.1654706983 
0.1498213943 
0.1963275358 
0.2176899079 
0.1895026201 
0.1692555909 
0.2661127242 
0.1725736711 
0.165411935 
0.1382517397 
0.1570516317 
0.149367037 
0.1658977525 
0.249408841 
0.184211191 
0.2888022913 
0.1656735458 
0.1712153273 
0.2722241025 
0.1467434344 
0.1445222401 
0.1512620719 
0.1353026785 
0.1345094583 
0.1926624148 
0.1992228393 
0.172991823 
0.1857474885 
0.1541471386 
0.1550835901 
0.1528997083 
0.1432068942 
0.1574700231 
0.1461236133 
0.136858392 
SCALARS KDE_ERROR_TAG double 1
LOOKUP_TABLE default
0.04302134628 
0.04225978102 
0.04242742698 
0.04209029719 
0.04226760589 
0.04192687028 
0.04227272193 
0.04355054416 
0.04187352913 
0.04287609823 
0.04164099928 
0.042071471 
0.04246949762 
0.04123683456 
0.0424650198 
0.04105428868 
0.04195945083 
0.04128768949 
0.04113435934 
0.04242334088 
0.04216668825 
0.04190751862 
0.04171770128 
0.04179146658 
0.0423541379 
0.04266246194 
0.04293785474 
0.04090136276 
0.04085035593 
0.04288851196 
0.0431908812 
0.04220958991 
0.04257834596 
0.04228747439 
0.04249224833 
0.04269058636 
0.04130218904 
0.04195895862 
0.04236581098 
0.03966180911 
0.04232209739 
0.04235068684 
0.04213031757 
0.04218549104 
0.04354062191 
0.04107923714 
0.04245454714 
0.04279912841 
0.0427199024 
0.06134071286 
0.04358055542 
0.04440160564 
0.0472238921 
0.04910810111 
0.05055510281 
0.05294938542 
0.05757583948 
0.05925697298 
0.06046521283 
0.06075063335 
0.06194013073 
0.06531310405 
0.06621054163 
0.06443531972 
0.0643325022 
0.06615929724 
0.06109327666 
0.06231468838 
0.06165530329 
0.06037564671 
0.06183629077 
0.05776848141 
0.05427559024 
0.0511825554 
0.04951449624 
0.04754031616 
0.04516099184 
0.04374592519 
0.0431723315 
0.0447796678 
0.04697597303 
0.04968545229 
0.04979881681 
0.05390546172 
0.05691244165 
0.05977606256 
0.05823489282 
0.06017181437 
0.0591500525 
0.0439605551 
0.04568666385 
0.04882942525 
0.04934052344 
0.05379303923 
0.05535462215 
0.05918276631 
0.05969169742 
0.05895177813 
0.06055584234 
0.0593360621 
0.04302428997 
0.04548520224 
0.04886740258 
0.05021695134 
0.05248585228 
0.05380748316 
0.05742895841 
0.05982096579 
0.06372643581 
0.06109310861 
0.05933699777 
0.04289918481 
0.04677391011 
0.04886124898 
0.05079955622 
0.05196417513 
0.05494606045 
0.0590828798 
0.05908189118 
0.06132783174 
0.06146799729 
0.05857333502 
0.04321579771 
0.0450125684 
0.04683864272 
0.04948973713 
0.05178197663 
0.05383398189 
0.05597456758 
0.05945083963 
0.06116111569 
0.06027970364 
0.06268323184 
0.06458665642 
0.05852165063 
0.06091874164 
0.06024133682 
0.05891133211 
0.05615802418 
0.05342202436 
0.05160222928 
0.04907201334 
0.04722967843 
0.04621588408 
0.04370694436 
0.06479979473 
0.06355905197 
0.06262128848 
0.06540481999 
0.06379284114 
0.04307529134 
0.04502798073 
0.04673496299 
0.04829755476 
0.05043055853 
0.05295157739 
0.05645965291 
0.05793702032 
0.06263409011 
0.06234842605 
0.05923364219 
0.04365163615 
0.0459194234 
0.04775094723 
0.04991793611 
0.05151150569 
0.05267688636 
0.05424020298 
0.0561448695 
0.05735069462 
0.06097254708 
0.05755483863 
0.04354984255 
0.04615524162 
0.04784667971 
0.0486904456 
0.05252014422 
0.05384752815 
0.05554913615 
0.05818090725 
0.057055703 
0.05799531738 
0.05956864214 
0.04302769861 
0.04549026932 
0.04682864712 
0.0493517225 
0.05214738477 
0.05400969522 
0.05665948044 
0.05860002639 
0.06026622091 
0.05991499976 
0.06178576345 
0.04355906279 
0.04543619192 
0.04731164107 
0.04832774669 
0.05144868019 
0.05480069576 
0.05752104881 
0.05836029368 
0.06193068184 
0.06046468169 
0.05900663064 
0.06536784271 
0.06070779184 
0.06428383508 
0.06371505007 
0.06406585735 
0.06353705695 
0.06583068437 
0.09321535319 
0.08347538014 
0.06671468825 
0.06466753978 
0.06715462126 
0.06326692356 
0.06357660473 
0.06284252353 
0.06268496429 
0.06420348635 
0.06321247711 
0.06453677723 
0.06312609198 
0.06157940972 
0.06314694808 
0.06111766726 
0.06298422474 
0.06189847254 
0.06597279574 
0.06386950312 
0.06454168997 
0.06472636327 
0.06673427003 
0.06433434947 