# vtk DataFile Version 3.0
MOAB 4.9.0
ASCII
DATASET UNSTRUCTURED_GRID
POINTS 133 double
0 -0.5 0.5
0 0.5 0.5
0 -0.1666666667 0.5
0 0.1666666667 0.5
0 0.5 -0.5
0 0.5 0.1666666667
0 0.5 -0.1666666667
0 -0.5 -0.5
0 0.1666666667 -0.5
0 -0.1666666667 -0.5
0 -0.5 -0.1666666667
0 -0.5 0.1666666667
0 -0.02126765447 0.1601017923
0 0.2660948883 -0.008333797701
0 0.05137122643 -0.20496936
0 -0.2273126189 -0.1089735135
0 0.2822987801 0.2636869323
0 0.2968265563 -0.2759939649
2.5 -0.5 -0.5
0.4166666667 -0.5 -0.5
0.8333333333 -0.5 -0.5
1.25 -0.5 -0.5
1.666666667 -0.5 -0.5
2.083333333 -0.5 -0.5
2.5 -0.5 0.5
2.5 -0.5 0.1666666667
2.5 -0.5 -0.1666666667
2.083333333 -0.5 0.5
1.666666667 -0.5 0.5
1.25 -0.5 0.5
0.8333333333 -0.5 0.5
0.4166666667 -0.5 0.5
0.6604523026 -0.5 -0.2104398808
0.9872447945 -0.5 -0.1805234126
1.376082357 -0.5 -0.1642906562
1.762295075 -0.5 -0.1310405967
2.125405153 -0.5 0.01187407585
1.825221566 -0.5 0.2109145329
1.495206587 -0.5 0.180014614
1.109189075 -0.5 0.1612079846
0.7287033311 -0.5 0.1265099118
0.3704148279 -0.5 -0.01398832816
2.5 0.5 -0.5
2.083333333 0.5 -0.5
1.666666667 0.5 -0.5
1.25 0.5 -0.5
0.8333333333 0.5 -0.5
0.4166666667 0.5 -0.5
2.5 -0.1666666667 -0.5
2.5 0.1666666667 -0.5
1.841446524 0.2098971156 -0.5
1.512160845 0.1806367922 -0.5
1.123529374 0.1643226638 -0.5
0.7370884795 0.1298390601 -0.5
2.131604786 0.01317692634 -0.5
0.6736966626 -0.2107137518 -0.5
1.004404349 -0.180174199 -0.5
1.389712794 -0.1610083834 -0.5
1.770820825 -0.1262162582 -0.5
0.3740197459 -0.01347911528 -0.5
2.5 0.5 0.5
2.5 0.5 -0.1666666667
2.5 0.5 0.1666666667
2.5 0.1666666667 0.5
2.5 -0.1666666667 0.5
2.5 0.1601017923 -0.02126765447
2.5 -0.008333797701 0.2660948883
2.5 -0.20496936 0.05137122643
2.5 -0.1089735135 -0.2273126189
2.5 0.2636869323 0.2822987801
2.5 -0.2759939649 0.2968265563
0.4166666667 0.5 0.5
0.8333333333 0.5 0.5
1.25 0.5 0.5
1.666666667 0.5 0.5
2.083333333 0.5 0.5
1.841446524 -0.2098971156 0.5
1.512160845 -0.1806367922 0.5
1.123529374 -0.1643226638 0.5
0.7370884795 -0.1298390601 0.5
2.131604786 -0.01317692634 0.5
0.6736966626 0.2107137518 0.5
1.004404349 0.180174199 0.5
1.389712794 0.1610083834 0.5
1.770820825 0.1262162582 0.5
0.3740197459 0.01347911528 0.5
0.6604523026 0.5 0.2104398808
0.9872447945 0.5 0.1805234126
1.376082357 0.5 0.1642906562
1.762295075 0.5 0.1310405967
2.125405153 0.5 -0.01187407585
1.825221566 0.5 -0.2109145329
1.495206587 0.5 -0.180014614
1.109189075 0.5 -0.1612079846
0.7287033311 0.5 -0.1265099118
0.3704148279 0.5 0.01398832816
0.2160764039 0.2927500606 0.02630951814
0.3273255527 0.02217706107 -0.1508534551
0.518427074 0.2243440449 -0.2251463085
0.5034689307 0.2527117133 0.1646009237
0.1827382594 0.337452203 0.3518511653
0.3857264817 0.04365047067 0.1538830251
0.1709786355 0.270390898 -0.2870618701
2.230311155 -0.2326143235 -0.328856796
2.26860404 0.1597673446 -0.2435820997
1.973394513 -0.2253895551 -0.2291754037
2.34600687 0.2903318405 0.2992280126
1.973543048 0.2504816055 0.2174074054
1.457182288 0.2038350701 0.04755564779
1.755960226 -0.04185893759 -0.170789808
1.699893355 0.274374485 -0.1891203225
1.441757917 0.05793372914 -0.2276141495
2.323995352 -0.2660777867 0.2776401639
2.023590565 -0.2411874384 0.2554839849
2.196707964 -0.06743509322 0.04461174831
1.832008362 -0.271456033 0.07437725365
1.77436924 0.03660920635 0.2002804577
0.246248588 -0.2476623952 0.09251891077
0.667868495 -0.149497211 -0.2389475107
0.7601258159 -0.1834941059 0.1016066447
1.068105102 -0.1933517158 -0.05765571445
0.7243252397 0.03323793411 0.2894783616
0.9686139822 0.2427986264 0.07809213549
1.137395501 -0.08002307266 0.1965134144
0.750680089 0.1652451456 -0.07804329693
2.092767239 0.190033868 -0.01055320539
1.982275844 0.1629306078 -0.2801247537
0.4810307622 -0.2392215729 0.2804051638
1.067118287 0.06550415605 -0.2067650557
0.2596182823 -0.2735364735 -0.2541667521
1.284517884 0.2861576676 -0.1931800842
1.448933244 -0.06258048862 0.2169171274
1.495151997 -0.2357333452 -0.1006049067
CELLS 436 2180
4 14 96 12 97
4 6 95 5 96
4 96 97 98 99
4 5 16 96 100
4 16 12 96 101
4 6 13 17 102
4 26 48 23 103
4 48 103 68 104
4 17 8 4 102
4 23 54 58 105
4 63 66 80 106
4 63 75 60 106
4 75 90 106 107
4 60 75 62 106
4 13 96 14 102
4 4 8 47 102
4 59 98 47 102
4 14 59 8 102
4 92 89 88 108
4 51 109 110 111
4 44 50 91 110
4 44 91 92 110
4 112 113 114 36
4 113 114 36 115
4 113 37 76 115
4 113 116 80 114
4 113 114 115 116
4 82 81 72 87
4 33 20 55 56
4 97 117 118 119
4 32 33 20 55
4 33 118 119 120
4 82 121 81 122
4 119 122 121 123
4 47 94 95 98
4 99 121 101 124
4 81 99 86 121
4 97 98 99 124
4 95 96 98 99
4 101 121 119 124
4 13 14 17 102
4 86 121 99 124
4 96 99 100 101
4 95 96 99 100
4 71 95 99 100
4 96 97 99 101
4 95 98 86 99
4 94 86 98 124
4 91 104 125 126
4 109 125 114 126
4 109 116 114 125
4 50 110 109 126
4 108 109 110 116
4 54 104 43 126
4 50 58 105 109
4 51 52 57 111
4 62 75 90 106
4 80 106 114 125
4 80 116 107 125
4 84 89 75 107
4 84 74 75 89
4 91 90 107 125
4 91 107 89 110
4 97 119 118 124
4 40 119 41 127
4 56 118 120 128
4 33 119 39 120
4 32 33 118 119
4 85 117 101 127
4 85 117 31 2
4 15 97 12 117
4 84 108 89 116
4 41 117 31 127
4 15 97 117 129
4 41 118 117 119
4 15 117 10 129
4 11 10 15 117
4 30 79 119 127
4 119 122 120 124
4 11 2 0 31
4 41 32 118 119
4 97 101 117 119
4 79 85 121 127
4 85 101 121 127
4 12 101 85 117
4 101 117 119 127
4 40 30 119 127
4 30 31 79 127
4 40 31 30 127
4 105 109 114 126
4 50 110 51 109
4 130 111 108 128
4 110 125 109 126
4 50 105 54 126
4 108 109 116 131
4 105 109 115 114
4 11 2 31 117
4 89 110 107 116
4 80 107 106 125
4 38 131 115 132
4 113 115 76 116
4 77 76 115 116
4 77 84 116 131
4 84 107 80 116
4 65 66 106 114
4 53 46 98 124
4 65 62 90 106
4 83 89 84 108
4 75 89 90 107
4 108 110 109 111
4 54 103 104 105
4 65 90 104 125
4 85 99 81 121
4 91 104 90 125
4 43 104 91 126
4 40 30 39 119
4 83 123 108 131
4 38 123 131 132
4 82 121 122 123
4 108 122 120 123
4 108 120 122 128
4 83 78 82 123
4 14 59 97 129
4 14 97 15 129
4 118 124 120 128
4 7 10 19 129
4 9 7 19 129
4 41 118 32 129
4 10 41 19 129
4 66 114 67 112
4 66 67 70 112
4 36 68 103 114
4 26 68 36 67
4 81 86 87 122
4 65 104 68 114
4 12 97 96 101
4 12 16 3 101
4 3 101 85 12
4 71 86 81 99
4 82 78 121 123
4 14 96 97 102
4 85 100 99 101
4 19 55 59 129
4 53 98 118 124
4 11 41 10 117
4 32 118 55 129
4 59 97 98 102
4 9 19 59 129
4 14 9 59 129
4 86 99 98 124
4 6 96 13 102
4 8 59 47 102
4 46 94 47 98
4 46 94 98 124
4 82 73 88 87
4 59 98 97 118
4 59 118 97 129
4 82 122 108 123
4 130 92 93 108
4 108 131 123 132
4 108 109 131 132
4 130 110 108 111
4 30 79 78 119
4 130 108 122 128
4 54 105 104 126
4 82 88 108 122
4 108 123 120 132
4 82 87 88 122
4 38 123 78 131
4 89 108 110 116
4 53 124 118 128
4 97 118 117 129
4 39 120 119 123
4 41 119 117 127
4 118 119 120 124
4 108 120 128 132
4 81 86 72 87
4 94 93 87 122
4 88 93 108 122
4 78 119 79 121
4 94 87 86 122
4 39 29 38 78
4 86 122 121 124
4 22 132 35 109
4 56 128 120 132
4 109 115 131 132
4 39 123 38 132
4 109 115 116 131
4 51 57 109 111
4 6 5 13 96
4 56 57 128 132
4 39 120 123 132
4 33 34 56 120
4 35 115 109 132
4 83 78 123 131
4 109 115 114 116
4 83 108 84 131
4 46 93 94 124
4 108 128 111 132
4 52 57 111 128
4 53 118 56 128
4 83 82 108 123
4 38 115 35 132
4 57 111 128 132
4 39 34 120 132
4 78 119 121 123
4 37 77 76 115
4 91 107 110 125
4 50 91 110 126
4 65 106 90 125
4 43 90 91 104
4 83 88 74 89
4 48 54 103 104
4 108 111 109 132
4 48 68 49 104
4 68 104 103 114
4 83 74 84 89
4 53 52 46 128
4 112 113 36 27
4 66 64 80 112
4 113 80 27 112
4 25 70 67 112
4 24 27 64 112
4 25 24 70 112
4 65 68 67 114
4 57 109 111 132
4 36 105 115 114
4 44 92 51 110
4 104 105 114 126
4 103 104 105 114
4 85 101 99 121
4 36 103 105 114
4 107 116 110 125
4 22 105 58 109
4 23 58 22 105
4 71 99 85 100
4 50 109 105 126
4 83 73 74 88
4 90 106 107 125
4 92 91 89 110
4 77 116 115 131
4 83 84 77 131
4 92 89 108 110
4 77 84 76 116
4 88 87 93 122
4 83 82 88 108
4 71 95 86 99
4 39 119 78 123
4 81 121 86 122
4 14 97 59 102
4 6 95 96 102
4 13 5 16 96
4 93 122 124 128
4 36 27 25 112
4 82 79 81 121
4 82 72 73 87
4 83 82 73 88
4 79 121 119 127
4 38 78 77 131
4 71 81 85 99
4 71 72 81 86
4 82 81 87 122
4 94 86 95 98
4 61 65 90 104
4 79 85 81 121
4 119 121 122 124
4 132 57 22 34
4 97 101 119 124
4 38 77 115 131
4 113 36 37 115
4 80 114 116 125
4 65 67 66 114
4 35 36 105 115
4 34 57 56 132
4 84 75 80 107
4 66 70 64 112
4 53 46 124 128
4 94 122 86 124
4 45 52 130 93
4 83 88 89 108
4 41 32 19 129
4 5 1 16 100
4 53 56 52 128
4 2 12 3 85
4 14 8 17 102
4 16 96 100 101
4 38 29 77 78
4 40 41 31 127
4 13 16 12 96
4 2 12 85 117
4 3 71 85 100
4 63 80 75 106
4 75 106 80 107
4 84 108 116 131
4 11 31 41 117
4 120 124 122 128
4 104 114 125 126
4 34 56 120 132
4 94 93 122 124
4 82 78 79 121
4 83 77 78 131
4 42 49 61 104
4 37 77 28 76
4 52 45 46 93
4 51 57 58 109
4 65 104 114 125
4 63 69 66 106
4 35 105 109 115
4 23 48 54 103
4 49 68 65 104
4 50 43 91 126
4 84 89 107 116
4 36 25 67 112
4 36 67 68 114
4 66 80 114 112
4 27 80 64 112
4 65 66 69 106
4 36 67 114 112
4 66 80 106 114
4 110 116 109 125
4 24 64 70 112
4 63 60 69 106
4 65 69 62 106
4 11 12 2 117
4 84 80 76 116
4 23 36 103 105
4 22 35 105 109
4 1 71 3 100
4 43 61 90 104
4 26 36 68 103
4 65 114 106 125
4 50 54 43 126
4 26 68 48 103
4 12 97 101 117
4 52 93 46 128
4 47 98 95 102
4 6 4 47 102
4 5 96 95 100
4 22 58 57 109
4 5 95 71 100
4 97 118 98 124
4 46 93 124 128
4 32 55 19 129
4 33 56 55 118
4 33 56 118 120
4 100 101 85 3
4 52 56 57 128
4 109 57 22 132
4 61 65 62 90
4 50 58 54 105
4 51 52 130 45
4 44 45 51 92
4 96 98 97 102
4 53 47 59 98
4 69 60 62 106
4 25 27 24 112
4 43 49 42 104
4 54 49 43 104
4 91 125 110 126
4 41 117 118 129
4 92 88 93 108
4 53 55 56 118
4 34 21 56 57
4 95 98 96 102
4 43 42 61 104
4 63 66 64 80
4 44 50 43 91
4 18 23 26 48
4 23 103 54 105
4 6 47 95 102
4 32 33 55 118
4 39 78 38 123
4 91 90 89 107
4 50 51 58 109
4 44 51 50 110
4 48 49 54 104
4 38 29 28 77
4 27 37 28 76
4 38 37 35 115
4 23 22 35 105
4 34 132 35 22
4 39 38 34 132
4 34 22 21 57
4 33 39 34 120
4 130 111 128 52
4 38 28 37 77
4 130 110 111 51
4 33 34 21 56
4 38 77 37 115
4 113 36 27 37
4 26 36 25 67
4 130 52 51 111
4 35 37 36 115
4 26 23 36 103
4 130 93 52 128
4 23 35 36 105
4 34 38 35 132
4 9 10 7 129
4 9 15 10 129
4 39 30 29 78
4 40 39 33 119
4 39 30 78 119
4 10 117 41 129
4 113 116 76 80
4 33 21 20 56
4 40 33 32 119
4 53 59 55 118
4 101 119 121 127
4 53 98 59 118
4 31 85 79 127
4 55 118 59 129
4 53 46 47 98
4 16 1 3 100
4 119 120 122 123
4 14 9 8 59
4 11 15 12 117
4 32 20 19 55
4 13 12 14 96
4 5 71 1 100
4 97 99 101 124
4 6 17 4 102
4 127 85 117 31
4 14 12 15 97
4 40 32 41 119
4 101 16 3 100
4 14 15 9 129
4 49 65 61 104
4 130 93 128 122
4 130 93 122 108
4 93 45 92 130
4 130 51 92 110
4 130 92 108 110
4 130 45 92 51
4 113 27 80 76
4 113 27 76 37
4 113 80 112 114
CELL_TYPES 436
10
10
10
10
10
10
10
10
10
10
10
10
10
10
10
10
10
10
10
10
10
10
10
10
10
10
10
10
10
10
10
10
10
10
10
10
10
10
10
10
10
10
10
10
10
10
10
10
10
10
10
10
10
10
10
10
10
10
10
10
10
10
10
10
10
10
10
10
10
10
10
10
10
10
10
10
10
10
10
10
10
10
10
10
10
10
10
10
10
10
10
10
10
10
10
10
10
10
10
10
10
10
10
10
10
10
10
10
10
10
10
10
10
10
10
10
10
10
10
10
10
10
10
10
10
10
10
10
10
10
10
10
10
10
10
10
10
10
10
10
10
10
10
10
10
10
10
10
10
10
10
10
10
10
10
10
10
10
10
10
10
10
10
10
10
10
10
10
10
10
10
10
10
10
10
10
10
10
10
10
10
10
10
10
10
10
10
10
10
10
10
10
10
10
10
10
10
10
10
10
10
10
10
10
10
10
10
10
10
10
10
10
10
10
10
10
10
10
10
10
10
10
10
10
10
10
10
10
10
10
10
10
10
10
10
10
10
10
10
10
10
10
10
10
10
10
10
10
10
10
10
10
10
10
10
10
10
10
10
10
10
10
10
10
10
10
10
10
10
10
10
10
10
10
10
10
10
10
10
10
10
10
10
10
10
10
10
10
10
10
10
10
10
10
10
10
10
10
10
10
10
10
10
10
10
10
10
10
10
10
10
10
10
10
10
10
10
10
10
10
10
10
10
10
10
10
10
10
10
10
10
10
10
10
10
10
10
10
10
10
10
10
10
10
10
10
10
10
10
10
10
10
10
10
10
10
10
10
10
10
10
10
10
10
10
10
10
10
10
10
10
10
10
10
10
10
10
10
10
10
10
10
10
10
10
10
10
10
10
10
10
10
10
10
10
10
10
10
10
10
10
10
10
10
10
10
10
10
10
10
10
10
10
10
10
10
10
10
10
10
10
10
10
10
10
10
10
10
10
10
10
10
10
10
10
10
CELL_DATA 436
SCALARS TALLY_TAG double 1
LOOKUP_TABLE default
77.11364713 
75.26988975 
76.17507941 
75.59323312 
77.02394627 
77.45263609 
77.10479709 
75.29128351 
75.96970263 
76.52312854 
77.85782404 
78.2859782 
76.64284305 
78.36018659 
77.94253155 
75.86056493 
76.53903675 
77.56195104 
77.99154227 
77.41992315 
76.95981755 
74.2658091 
77.74512671 
78.82553158 
78.5426132 
78.56687021 
76.64067089 
76.72668677 
77.52433789 
78.18926837 
76.52407927 
75.85956016 
78.36896435 
77.95428187 
75.98492866 
76.17876484 
75.17175979 
76.67204634 
78.60052376 
76.04525434 
76.90716839 
77.33201273 
77.45457963 
78.72273202 
75.29163466 
76.72703126 
77.72913871 
75.48118654 
74.62818715 
74.64876876 
77.82267138 
75.97711936 
75.20559243 
77.82350121 
76.38454312 
76.92641874 
80.99494395 
77.9363889 
76.65767962 
75.65552161 
75.87873951 
74.92605884 
77.4908594 
77.74020911 
79.79337969 
76.78532393 
78.18463895 
77.58569249 
77.55383112 
76.03121258 
75.49169463 
78.05474381 
79.98182945 
75.92460319 
78.50923051 
76.22883952 
75.29844246 
78.31529899 
75.22572486 
77.66987005 
76.35104833 
77.7761253 
79.32924783 
77.13584334 
76.7731891 
79.47626584 
77.55179879 
78.89406854 
78.0555884 
76.03135668 
76.62834095 
78.33674258 
75.90910319 
74.67711702 
78.23656248 
77.75548569 
77.62002819 
75.67388234 
77.87949859 
77.84214933 
77.63510103 
75.13158823 
77.83357619 
78.15423902 
77.3009154 
74.68328849 
79.88649585 
77.48065104 
76.501761 
76.95885658 
77.09216272 
76.97664414 
74.88870175 
77.7849113 
73.48999723 
77.59327736 
75.91779913 
76.56896238 
76.09728978 
75.43626165 
77.53130585 
75.80432531 
77.05856099 
78.23962736 
77.66880539 
77.99455603 
75.46970879 
77.49791076 
79.45534549 
77.78821996 
82.06355747 
76.23218352 
77.55434089 
75.48499739 
77.20115662 
75.50038285 
79.30728525 
76.35193645 
75.7168349 
75.09324462 
78.32480642 
77.19112324 
77.56023865 
78.16265925 
79.13979943 
79.26267401 
76.05337811 
77.9681457 
78.30253068 
76.54130552 
78.11794202 
76.41456177 
77.48891187 
74.87486728 
77.53080903 
77.80954936 
79.76628243 
75.96259858 
77.56705722 
75.02413607 
77.36726283 
78.36776904 
77.513075 
76.76571434 
80.20735342 
75.3516443 
77.35589873 
74.26051276 
78.54549873 
76.49940357 
79.07879539 
77.53381355 
77.14840548 
80.07535202 
75.94686835 
78.41551481 
74.5627707 
75.94249789 
75.75041753 
77.32437579 
76.64334822 
77.0828975 
75.60856721 
76.54149922 
79.40359351 
78.42122133 
78.39669151 
78.91977857 
77.0727904 
81.23566443 
78.24126662 
77.92546768 
76.75802231 
79.39981781 
76.56791155 
78.86087411 
76.14643177 
77.04630591 
75.48895706 
79.7735011 
77.722514 
77.16829336 
75.67997293 
79.36423113 
79.51427952 
77.09588868 
77.02855177 
75.55066942 
75.96853954 
75.78281413 
76.27705303 
77.68260645 
76.37319705 
76.87602296 
77.22715687 
77.11396654 
75.07678611 
79.44280806 
78.17746059 
77.82077605 
78.27212931 
79.14316073 
80.20273552 
77.26136435 
78.35469456 
79.06993065 
78.70616272 
76.71844872 
77.71710919 
76.02015176 
77.32573981 
77.14338579 
77.11744703 
77.32404326 
77.44302588 
77.57008245 
72.72942936 
74.43827197 
74.89037949 
75.4740911 
77.42401616 
75.8677465 
77.23987451 
78.38047342 
76.78562211 
76.54167596 
77.82906152 
79.50419469 
76.29176068 
77.4755115 
76.13133929 
73.17021675 
77.00307735 
77.37683041 
78.42438508 
77.13521595 
75.57503048 
79.05277322 
78.53470425 
76.8828993 
76.87015634 
77.02496599 
74.53405867 
79.42749316 
74.47700333 
77.81748972 
78.20748064 
78.02036482 
75.98487642 
77.52753859 
78.905152 
77.54911787 
78.55182567 
75.69594838 
76.12752651 
74.41829372 
76.78358039 
77.54029264 
79.00767963 
78.20747442 
77.44593124 
76.53272974 
77.04980958 
76.85215034 
75.63149339 
74.84543948 
78.15670764 
79.11975452 
77.84983439 
76.21021136 
76.01083461 
76.7248198 
77.23171862 
77.20285336 
78.28057943 
78.30801968 
74.1699045 
77.49364174 
76.12697435 
75.06678265 
78.58146088 
77.44690013 
77.45917381 
76.30998976 
78.09843477 
78.64186627 
75.23277956 
81.02503722 
75.59287228 
76.20397449 
76.82229822 
77.27245081 
79.05285815 
76.5332496 
78.44807888 
78.27734736 
77.53182968 
76.61894374 
77.34235212 
76.70002185 
79.24888959 
77.875044 
81.77025136 
75.89653895 
77.69481372 
78.37627164 
77.06460102 
75.62224069 
77.93166585 
75.76210294 
78.18370266 
76.05049151 
75.24159652 
75.97102225 
76.45626081 
75.77095183 
76.68987174 
77.25147372 
77.32103286 
76.80919506 
78.59365136 
77.8077445 
77.93298745 
75.94385242 
75.73324374 
77.4939746 
76.61841401 
76.84913816 
78.23708135 
77.88572827 
76.76550486 
77.14042106 
75.38831953 
78.25160339 
77.92765643 
76.04275922 
76.89256651 
77.89168543 
74.00177027 
77.14850885 
75.74792131 
78.58204254 
78.80456682 
74.71239968 
78.86553564 
75.43194754 
79.00768695 
77.59794438 
78.36212602 
77.05300538 
76.42343591 
80.76572214 
78.116376 
75.88082409 
78.43002033 
76.55433498 
75.21246351 
77.1493157 
78.82514922 
78.02184345 
76.81530532 
80.68960151 
78.28374356 
77.54012977 
79.24137375 
75.3151316 
78.83136679 
76.16803428 
78.61585734 
77.35151666 
77.53298928 
78.13473213 
79.02488139 
75.61566476 
78.95496194 
79.73273196 
77.94356741 
74.96319325 
75.42128572 
77.24390674 
78.5686412 
77.83952473 
80.04149472 
79.87062393 
75.71789392 
79.39184123 
79.09791256 
79.86874007 
77.39939298 
78.54994854 
77.65599584 
76.37987446 
74.49806355 
78.08368626 
76.58598616 
74.87182243 
78.17178632 
74.92387057 
78.58086763 
77.82618703 
74.98536447 
79.09260754 
76.65715131 
76.5140444 
76.24817184 
77.01086573 
79.3321355 
76.9265376 
78.07501132 
77.25191305 
79.77231009 
77.26071235 
80.45153464 
76.02890496 
76.42671552 
79.4145442 
SCALARS ERROR_TAG double 1
LOOKUP_TABLE default
0.01895478782 
0.02104757235 
0.02025072522 
0.02538859965 
0.02007185923 
0.02768314115 
0.01758920725 
0.02056561726 
0.0255414386 
0.01703297653 
0.0200408915 
0.02032358806 
0.01762343801 
0.01988007557 
0.02447413956 
0.01955018604 
0.01736263629 
0.01972716599 
0.0187016833 
0.02063295938 
0.02120411901 
0.02213055786 
0.01998945159 
0.01997336759 
0.02231613863 
0.01781438158 
0.02022577642 
0.01905983168 
0.01945622032 
0.01714033355 
0.01972777115 
0.01830669466 
0.02000594734 
0.01888332038 
0.01704149814 
0.02069244602 
0.02112924526 
0.02047095957 
0.02032597458 
0.01854827938 
0.02714573171 
0.01904613297 
0.0217358322 
0.02112644056 
0.01855020546 
0.02293278959 
0.01984140273 
0.01968591252 
0.02107608295 
0.02073163543 
0.01795961709 
0.02220328301 
0.01894622251 
0.0190778854 
0.02047496864 
0.01876435098 
0.01749749236 
0.01780459427 
0.01910708886 
0.01740119544 
0.01649557395 
0.02025074005 
0.02024541335 
0.01763723172 
0.01886690665 
0.01756324217 
0.01848880263 
0.01860958196 
0.02074313805 
0.01457148979 
0.01929765938 
0.01698730678 
0.01957559852 
0.02107045034 
0.01659595986 
0.02139267854 
0.02148717108 
0.01771554073 
0.0190013818 
0.01726829323 
0.01768389768 
0.01779187054 
0.02031558085 
0.01947158937 
0.01864136196 
0.01997836027 
0.0180227298 
0.01857540102 
0.01759921652 
0.01936521374 
0.01936710923 
0.02175870872 
0.02093176434 
0.02052713212 
0.0185442935 
0.01931249825 
0.01520497087 
0.01865885041 
0.01888078476 
0.01738812002 
0.02147470798 
0.01784128032 
0.02102083424 
0.01996306028 
0.01905694235 
0.0183115557 
0.01788590753 
0.01578753439 
0.01800333883 
0.02079485681 
0.02049367326 
0.01999799458 
0.01955900702 
0.01923008089 
0.01901273277 
0.01738508159 
0.01878319474 
0.01773868285 
0.01760774893 
0.01707468335 
0.01666641268 
0.01831937151 
0.01869348216 
0.02231091621 
0.01888291774 
0.0190412748 
0.0185322608 
0.01899392791 
0.01732740499 
0.02161313196 
0.02760019761 
0.01765768906 
0.01839569639 
0.01869071192 
0.01930340832 
0.01931683267 
0.01930925238 
0.01870062035 
0.0193505829 
0.01815641293 
0.02111161589 
0.02040035324 
0.01843616254 
0.01955919313 
0.01934991345 
0.01790199841 
0.02007951864 
0.01742839939 
0.01766139817 
0.02004315956 
0.02342899803 
0.01736002655 
0.01746170779 
0.01900511413 
0.01770875241 
0.01906426452 
0.01855068704 
0.01607505333 
0.02151902404 
0.01843211397 
0.01940764833 
0.02109146545 
0.01639343596 
0.01926314664 
0.01989069059 
0.01548836686 
0.01755077699 
0.01732800173 
0.01706865377 
0.01734283179 
0.01766140206 
0.0182088232 
0.01887262528 
0.01984365538 
0.01870935936 
0.01681388784 
0.02001275908 
0.01951484958 
0.01715034723 
0.0195310917 
0.02002388502 
0.01759807135 
0.01803490809 
0.01727961558 
0.01667753575 
0.01836275262 
0.01645161368 
0.01845152081 
0.01889849359 
0.02397099507 
0.01654840923 
0.0174092724 
0.01647571943 
0.02017638408 
0.01962427209 
0.01788505283 
0.01751369394 
0.01715358991 
0.01795937167 
0.01873667357 
0.01697436489 
0.01665328111 
0.01867805783 
0.0177730971 
0.01801456179 
0.01876195752 
0.01870789901 
0.01991831444 
0.02240698575 
0.01808663127 
0.01699977401 
0.01729497756 
0.01966111114 
0.0200821945 
0.02170043238 
0.01936593084 
0.01663918792 
0.0176387907 
0.01883930522 
0.02063915274 
0.01883466447 
0.02703661183 
0.01953568381 
0.0259315409 
0.02035314185 
0.01955817571 
0.01804425702 
0.01932475918 
0.01947982907 
0.019390295 
0.02112905704 
0.01869868392 
0.01912190249 
0.01911917902 
0.0174192883 
0.0175517327 
0.02119935646 
0.01733200819 
0.02015417241 
0.02096343617 
0.0186150827 
0.0188268086 
0.01891064735 
0.0194367956 
0.01908701918 
0.01652339301 
0.01935577333 
0.01679379266 
0.01919142054 
0.0202332789 
0.0217054152 
0.02560558559 
0.01922957434 
0.01743876791 
0.02116556046 
0.01783536665 
0.0176795966 
0.02176004406 
0.01695685249 
0.01735481234 
0.01889451906 
0.018197723 
0.0193916818 
0.01754916007 
0.02121307379 
0.02082474799 
0.01725429663 
0.01724833272 
0.01695303794 
0.02209784642 
0.01730854629 
0.02061384549 
0.01940266976 
0.01705001841 
0.01692020933 
0.02866203207 
0.01662872796 
0.01957965683 
0.01983878776 
0.01673319908 
0.0190602569 
0.0256066923 
0.01853641162 
0.01778722117 
0.02731936137 
0.02211967451 
0.01764134107 
0.01730856036 
0.02338542792 
0.01736546546 
0.01933753281 
0.01795358665 
0.01717160164 
0.01947078681 
0.0166434333 
0.01989661752 
0.02262366878 
0.01621400897 
0.02082818075 
0.01983207778 
0.01862705807 
0.02015087622 
0.02019826294 
0.01714326861 
0.01791338363 
0.02147129652 
0.02930605713 
0.02101709035 
0.01895771769 
0.01980023259 
0.01958638383 
0.01983834684 
0.02008246273 
0.01821416142 
0.01883012807 
0.01788978403 
0.02565781844 
0.01960061147 
0.0176057326 
0.01788884665 
0.02655954457 
0.0274550734 
0.02518487653 
0.01831031361 
0.01942137237 
0.0190169323 
0.01791122993 
0.0216425506 
0.01581104218 
0.0184476082 
0.01923257697 
0.02012133198 
0.0206763863 
0.01968999726 
0.0173966832 
0.01749199405 
0.01926494869 
0.0216118368 
0.01723105985 
0.01893019393 
0.02115243967 
0.01575958299 
0.01713687286 
0.01869946616 
0.01681601779 
0.01954017448 
0.0183479038 
0.01602844029 
0.01803175695 
0.01940390419 
0.0182146032 
0.01777783138 
0.02149589673 
0.01680905241 
0.0266991227 
0.0191930577 
0.01802662372 
0.01706278645 
0.02132969044 
0.01788549917 
0.01825090721 
0.01996110515 
0.01802230017 
0.02043150114 
0.01707002698 
0.02039747454 
0.01874883589 
0.01745326622 
0.02035090232 
0.0172690261 
0.01938496247 
0.01666241491 
0.01963624657 
0.01906386639 
0.01984210382 
0.01967912592 
0.01811247542 
0.01910901143 
0.02091555994 
0.01738815495 
0.01844626941 
0.01848824942 
0.01729904559 
0.01828867727 
0.02076443684 
0.01971573374 
0.0200829071 
0.01782770707 
0.01804140191 
0.01908136709 
0.01879904325 
0.02039701505 
0.02091656839 
0.01687631363 
0.02050550755 
0.01707556409 
0.01913004572 
0.02009607261 
0.02006018669 
0.01741357199 
0.01777996865 
0.01502389178 
0.01951836145 
0.01907888587 
0.0178359153 
0.01906657056 
0.0195886229 
0.02047481678 
0.01789768577 
0.01800132364 
0.01928865532 
0.01731963048 
0.02480773951 
0.01861510475 
0.01847775898 
0.01946937652 
0.01891107774 
0.02197944848 
0.02161814243 
0.02110427661 
0.0269058095 
0.01835986141 
0.01944409006 
0.01841534714 
0.0214429217 
0.02022703827 
0.01832996151 
0.02092434941 
0.02028279102 
0.02011841467 
0.01955444237 
0.02133261976 
0.01841268406 
0.01966889725 
0.0198220762 
0.01986868708 
