# vtk DataFile Version 3.0
MOAB 4.9.0
ASCII
DATASET UNSTRUCTURED_GRID
POINTS 133 double
2.5 -0.5 -0.5
2.5 -0.5 0.5
2.5 -0.5 0.1666666667
2.5 -0.5 -0.1666666667
2.5 0.5 -0.5
2.5 -0.1666666667 -0.5
2.5 0.1666666667 -0.5
2.5 0.5 0.5
2.5 0.5 -0.1666666667
2.5 0.5 0.1666666667
2.5 0.1666666667 0.5
2.5 -0.1666666667 0.5
2.5 0.1601017923 -0.02126765447
2.5 -0.008333797701 0.2660948883
2.5 -0.20496936 0.05137122643
2.5 -0.1089735135 -0.2273126189
2.5 0.2636869323 0.2822987801
2.5 -0.2759939649 0.2968265563
5 -0.5 -0.5
2.916666667 -0.5 -0.5
3.333333333 -0.5 -0.5
3.75 -0.5 -0.5
4.166666667 -0.5 -0.5
4.583333333 -0.5 -0.5
5 -0.5 0.5
5 -0.5 0.1666666667
5 -0.5 -0.1666666667
4.583333333 -0.5 0.5
4.166666667 -0.5 0.5
3.75 -0.5 0.5
3.333333333 -0.5 0.5
2.916666667 -0.5 0.5
3.160452303 -0.5 -0.2104398808
3.487244794 -0.5 -0.1805234126
3.876082357 -0.5 -0.1642906562
4.262295075 -0.5 -0.1310405967
4.625405153 -0.5 0.01187407585
4.325221566 -0.5 0.2109145329
3.995206587 -0.5 0.180014614
3.609189075 -0.5 0.1612079846
3.228703331 -0.5 0.1265099118
2.870414828 -0.5 -0.01398832816
5 0.5 -0.5
4.583333333 0.5 -0.5
4.166666667 0.5 -0.5
3.75 0.5 -0.5
3.333333333 0.5 -0.5
2.916666667 0.5 -0.5
5 -0.1666666667 -0.5
5 0.1666666667 -0.5
4.341446524 0.2098971156 -0.5
4.012160845 0.1806367922 -0.5
3.623529374 0.1643226638 -0.5
3.237088479 0.1298390601 -0.5
4.631604786 0.01317692634 -0.5
3.173696663 -0.2107137518 -0.5
3.504404349 -0.180174199 -0.5
3.889712794 -0.1610083834 -0.5
4.270820825 -0.1262162582 -0.5
2.874019746 -0.01347911528 -0.5
5 0.5 0.5
5 0.1666666667 0.5
5 -0.1666666667 0.5
5 0.5 -0.1666666667
5 0.5 0.1666666667
5 0.02126765447 0.1601017923
5 -0.2660948883 -0.008333797701
5 -0.05137122643 -0.20496936
5 0.2273126189 -0.1089735135
5 -0.2822987801 0.2636869323
5 -0.2968265563 -0.2759939649
2.916666667 0.5 0.5
3.333333333 0.5 0.5
3.75 0.5 0.5
4.166666667 0.5 0.5
4.583333333 0.5 0.5
4.341446524 -0.2098971156 0.5
4.012160845 -0.1806367922 0.5
3.623529374 -0.1643226638 0.5
3.237088479 -0.1298390601 0.5
4.631604786 -0.01317692634 0.5
3.173696663 0.2107137518 0.5
3.504404349 0.180174199 0.5
3.889712794 0.1610083834 0.5
4.270820825 0.1262162582 0.5
2.874019746 0.01347911528 0.5
3.160452303 0.5 0.2104398808
3.487244794 0.5 0.1805234126
3.876082357 0.5 0.1642906562
4.262295075 0.5 0.1310405967
4.625405153 0.5 -0.01187407585
4.325221566 0.5 -0.2109145329
3.995206587 0.5 -0.180014614
3.609189075 0.5 -0.1612079846
3.228703331 0.5 -0.1265099118
2.870414828 0.5 0.01398832816
4.621167183 0.1467276365 0.02320851572
4.587869644 -0.1567480564 0.2425334156
4.739274979 0.211898312 0.2149455696
4.613420486 -0.1452762336 0.01912979782
4.487459183 0.2077860832 0.2191662192
4.798600197 -0.2607178986 -0.2513897717
2.986800671 -0.287807256 -0.1623533964
2.726988554 -0.3093886077 -0.2525732815
3.337021112 -0.1372564733 -0.2551191747
2.90698123 -0.02941352315 -0.1697928011
3.284005404 -0.1658762544 0.101363875
3.02803421 -0.2257682532 0.2356002629
2.826515913 0.05140550435 0.126691252
4.4858675 0.1870624721 -0.2482018322
4.298799992 0.2775917947 -0.02752953023
4.444809437 -0.2373282611 -0.2480938882
4.216859818 -0.09785936028 -0.1999637187
4.762773514 0.2927835584 -0.2715108693
3.274288416 0.008211490698 0.2768995464
4.217506886 0.04043630511 0.1927536577
4.153773308 0.2285368741 -0.2665785253
4.144780636 -0.2618141472 0.01969689317
3.926980972 -0.06076477468 0.2146259844
3.87608242 -0.1666666716 -0.05476365983
3.87608242 0.1666666716 0.05476349965
2.741821527 -0.2532663345 0.2478310466
2.772876501 0.2904781997 -0.2425258309
3.029907465 0.2114405781 -0.221938625
3.24358201 0.1711490601 -0.0628580302
4.806509018 -0.3666316569 0.295664221
3.627902746 -0.06697357446 0.1921230257
3.562954187 0.1991491169 0.07620308548
3.018739462 0.2663551867 0.1878198683
2.684382915 0.3530833423 0.338766247
3.623529434 0.05477424711 -0.1666666716
3.572375298 -0.2144924253 -0.06068827957
3.926980972 0.06076446176 -0.2146259844
CELLS 438 2190
4 65 96 97 98
4 65 97 96 99
4 75 90 98 100
4 61 75 60 98
4 64 60 75 98
4 80 98 97 100
4 75 98 80 100
4 65 97 80 98
4 48 70 67 101
4 66 99 67 101
4 18 70 48 101
4 26 36 66 101
4 18 26 70 101
4 19 102 55 103
4 55 102 104 105
4 81 86 72 87
4 102 104 105 106
4 102 107 106 108
4 40 106 102 107
4 19 41 102 103
4 102 106 105 108
4 40 102 41 107
4 40 32 102 106
4 90 109 96 110
4 54 99 109 111
4 99 109 111 112
4 54 43 109 113
4 78 79 82 114
4 109 112 115 116
4 67 99 96 109
4 50 58 111 112
4 50 111 109 112
4 38 77 117 118
4 83 74 84 115
4 22 58 57 112
4 22 111 58 112
4 34 22 57 117
4 38 117 34 119
4 117 119 118 120
4 82 87 73 88
4 13 14 108 121
4 14 2 41 121
4 1 31 2 121
4 13 85 11 121
4 1 11 31 121
4 12 108 105 122
4 59 122 105 123
4 51 57 58 112
4 59 47 122 123
4 8 4 47 122
4 6 47 4 122
4 47 95 122 123
4 47 94 95 123
4 90 96 100 110
4 89 90 100 110
4 89 88 110 115
4 88 92 110 120
4 96 100 110 115
4 115 110 116 120
4 104 123 105 124
4 96 97 100 115
4 97 99 117 115
4 76 97 117 115
4 106 108 114 124
4 36 99 97 125
4 96 99 97 115
4 84 100 76 115
4 38 39 78 126
4 69 97 99 125
4 82 114 87 127
4 27 97 80 125
4 95 108 122 123
4 87 114 124 127
4 86 124 114 128
4 71 95 128 129
4 95 108 128 129
4 52 93 124 130
4 105 122 108 123
4 95 123 86 128
4 86 123 94 124
4 78 106 114 126
4 106 108 107 114
4 78 106 79 114
4 82 81 87 114
4 108 114 124 128
4 10 85 108 129
4 81 86 87 114
4 104 130 124 131
4 32 104 102 106
4 20 56 55 104
4 33 104 106 131
4 20 55 32 104
4 36 37 99 111
4 36 99 101 111
4 22 111 112 117
4 23 58 22 111
4 71 95 86 128
4 104 105 106 124
4 32 55 102 104
4 33 106 39 131
4 33 104 32 106
4 14 102 103 105
4 55 59 103 105
4 3 14 41 103
4 55 103 102 105
4 0 19 5 103
4 0 3 19 103
4 5 19 59 103
4 81 114 85 128
4 10 85 13 108
4 85 128 108 129
4 10 108 16 129
4 16 108 9 129
4 16 9 7 129
4 10 7 71 129
4 55 56 53 104
4 76 80 97 100
4 76 100 97 115
4 77 117 118 115
4 71 128 85 129
4 83 77 118 115
4 83 82 120 126
4 93 120 127 130
4 92 120 93 130
4 120 115 132 116
4 119 127 131 126
4 118 120 119 126
4 21 20 33 56
4 37 97 99 117
4 112 117 115 132
4 69 80 65 97
4 27 37 76 97
4 69 80 97 125
4 96 97 98 100
4 43 42 63 113
4 109 90 43 91
4 63 68 90 113
4 113 109 90 43
4 49 67 68 113
4 54 109 67 113
4 67 109 96 113
4 117 118 115 120
4 116 50 91 109
4 90 96 98 100
4 99 112 111 117
4 90 91 109 110
4 109 115 99 96
4 68 90 96 98
4 37 99 111 117
4 84 74 75 100
4 75 74 89 100
4 85 108 107 121
4 79 106 107 114
4 78 114 82 126
4 71 86 81 128
4 12 95 108 122
4 9 108 95 129
4 53 123 104 124
4 52 124 104 130
4 6 15 59 105
4 104 124 106 131
4 19 55 59 103
4 15 103 59 105
4 74 89 100 115
4 75 89 90 100
4 65 68 96 98
4 64 90 68 98
4 23 101 54 111
4 61 65 80 98
4 30 79 106 107
4 106 124 127 131
4 36 99 66 101
4 106 127 126 131
4 34 35 22 117
4 85 114 108 128
4 79 107 85 114
4 31 85 107 121
4 30 106 40 107
4 31 79 30 107
4 86 123 124 128
4 31 30 40 107
4 86 87 114 124
4 87 94 93 124
4 106 124 114 127
4 52 104 56 130
4 53 104 52 124
4 54 67 49 113
4 95 94 86 123
4 85 107 108 114
4 38 78 118 126
4 83 118 78 126
4 37 76 97 117
4 117 120 115 132
4 116 109 110 115
4 39 119 34 131
4 34 119 56 131
4 106 114 126 127
4 33 34 56 131
4 83 82 88 120
4 77 76 117 115
4 38 118 119 126
4 57 117 112 132
4 39 126 119 131
4 117 119 120 132
4 83 120 118 126
4 38 118 117 119
4 38 119 39 126
4 115 109 110 96
4 82 126 114 127
4 82 120 126 127
4 41 107 102 108
4 127 120 119 130
4 51 52 57 132
4 12 14 105 108
4 52 132 92 130
4 92 132 120 130
4 82 88 120 127
4 46 93 94 124
4 55 59 105 123
4 87 124 93 127
4 126 120 119 127
4 57 119 132 130
4 124 130 127 131
4 52 57 132 130
4 89 110 100 115
4 116 92 51 132
4 116 115 132 112
4 84 75 80 100
4 22 35 111 117
4 65 68 67 96
4 67 96 68 113
4 66 65 67 99
4 65 96 67 99
4 21 34 22 57
4 66 67 70 101
4 116 112 50 109
4 116 91 92 110
4 12 15 6 105
4 55 105 104 123
4 35 37 36 111
4 124 46 52 53
4 8 47 95 122
4 6 105 59 122
4 53 46 123 124
4 46 94 47 123
4 55 104 53 123
4 39 30 78 106
4 1 2 17 121
4 52 92 93 130
4 130 127 131 119
4 38 78 77 118
4 35 37 111 117
4 56 119 130 131
4 89 115 74 88
4 50 54 109 111
4 116 44 91 50
4 89 92 91 110
4 8 6 4 122
4 45 52 92 93
4 12 14 15 105
4 33 40 39 106
4 89 91 90 110
4 95 108 123 128
4 92 44 91 116
4 42 49 63 113
4 83 115 118 120
4 25 27 24 125
4 83 73 74 88
4 88 93 120 127
4 24 62 69 125
4 83 84 77 115
4 10 11 13 85
4 10 71 85 129
4 82 72 73 87
4 30 79 78 106
4 119 120 132 130
4 89 88 92 110
4 27 76 80 97
4 10 13 16 108
4 1 17 11 121
4 37 77 76 117
4 69 97 65 99
4 112 109 115 99
4 84 74 100 115
4 83 82 73 88
4 12 95 9 108
4 51 92 52 132
4 39 106 78 126
4 54 101 99 111
4 25 69 66 125
4 71 72 81 86
4 8 95 12 122
4 24 27 62 125
4 38 29 77 78
4 64 75 90 98
4 79 85 81 114
4 31 85 79 107
4 105 123 108 124
4 93 127 124 130
4 71 81 85 128
4 14 41 108 121
4 11 85 31 121
4 56 130 104 131
4 46 94 123 124
4 39 106 126 131
4 81 86 114 128
4 41 107 108 121
4 61 80 75 98
4 37 77 28 76
4 116 109 91 110
4 27 80 62 125
4 68 96 90 113
4 99 112 117 115
4 56 119 57 130
4 83 78 82 126
4 83 77 78 118
4 43 63 90 113
4 45 46 52 93
4 61 60 64 98
4 36 66 99 125
4 69 62 65 80
4 7 9 71 129
4 25 24 69 125
4 69 65 66 99
4 36 25 66 125
4 54 99 67 109
4 36 97 27 125
4 26 66 70 101
4 48 67 54 101
4 49 68 63 113
4 64 68 65 98
4 14 41 102 108
4 115 74 88 83
4 82 87 88 127
4 38 77 37 117
4 61 65 62 80
4 116 51 50 112
4 54 67 99 101
4 23 36 101 111
4 18 23 26 101
4 88 110 115 120
4 64 63 68 90
4 50 54 43 109
4 23 48 54 101
4 44 51 116 92
4 50 43 91 109
4 33 56 20 104
4 19 32 55 102
4 34 57 56 119
4 33 56 104 131
4 52 56 57 130
4 83 88 115 120
4 51 57 112 132
4 69 62 80 125
4 50 58 54 111
4 15 14 103 105
4 14 102 105 108
4 55 53 59 123
4 14 102 41 103
4 59 53 47 123
4 51 45 52 92
4 77 84 76 115
4 8 9 12 95
4 12 9 16 108
4 6 59 47 122
4 43 49 42 113
4 54 49 43 113
4 48 49 54 67
4 9 95 71 129
4 22 112 57 117
4 87 93 88 127
4 5 59 15 103
4 10 16 7 129
4 34 117 57 119
4 21 56 34 57
4 57 119 117 132
4 82 81 72 87
4 44 50 43 91
4 18 48 23 101
4 23 54 58 111
4 44 45 51 92
4 53 46 47 123
4 90 96 109 113
4 50 51 116 44
4 38 29 28 77
4 27 37 28 76
4 36 37 97 99
4 29 39 30 78
4 38 37 35 117
4 23 22 35 111
4 38 39 29 78
4 13 17 14 121
4 33 39 34 131
4 84 80 76 100
4 13 108 85 121
4 82 79 81 114
4 2 31 41 121
4 105 108 106 124
4 33 32 40 106
4 38 34 39 119
4 61 64 65 98
4 38 28 37 77
4 38 35 34 117
4 108 124 123 128
4 36 27 25 125
4 26 36 25 66
4 53 56 52 104
4 26 23 36 101
4 116 132 51 112
4 93 124 46 52
4 36 37 27 97
4 31 40 41 107
4 12 16 13 108
4 3 41 19 103
4 86 94 87 124
4 19 32 20 55
4 69 99 66 125
4 33 20 32 104
4 88 93 92 120
4 31 107 41 121
4 19 41 32 102
4 12 13 14 108
4 21 33 34 56
4 39 40 30 106
4 23 35 36 111
4 50 51 58 112
4 3 15 14 103
4 6 15 5 59
4 13 11 17 121
4 5 15 3 103
4 3 14 2 41
4 17 2 14 121
4 8 12 6 122
4 0 5 3 103
4 40 32 41 102
4 12 105 6 122
4 116 92 132 120
4 116 92 120 110
CELL_TYPES 438
10
10
10
10
10
10
10
10
10
10
10
10
10
10
10
10
10
10
10
10
10
10
10
10
10
10
10
10
10
10
10
10
10
10
10
10
10
10
10
10
10
10
10
10
10
10
10
10
10
10
10
10
10
10
10
10
10
10
10
10
10
10
10
10
10
10
10
10
10
10
10
10
10
10
10
10
10
10
10
10
10
10
10
10
10
10
10
10
10
10
10
10
10
10
10
10
10
10
10
10
10
10
10
10
10
10
10
10
10
10
10
10
10
10
10
10
10
10
10
10
10
10
10
10
10
10
10
10
10
10
10
10
10
10
10
10
10
10
10
10
10
10
10
10
10
10
10
10
10
10
10
10
10
10
10
10
10
10
10
10
10
10
10
10
10
10
10
10
10
10
10
10
10
10
10
10
10
10
10
10
10
10
10
10
10
10
10
10
10
10
10
10
10
10
10
10
10
10
10
10
10
10
10
10
10
10
10
10
10
10
10
10
10
10
10
10
10
10
10
10
10
10
10
10
10
10
10
10
10
10
10
10
10
10
10
10
10
10
10
10
10
10
10
10
10
10
10
10
10
10
10
10
10
10
10
10
10
10
10
10
10
10
10
10
10
10
10
10
10
10
10
10
10
10
10
10
10
10
10
10
10
10
10
10
10
10
10
10
10
10
10
10
10
10
10
10
10
10
10
10
10
10
10
10
10
10
10
10
10
10
10
10
10
10
10
10
10
10
10
10
10
10
10
10
10
10
10
10
10
10
10
10
10
10
10
10
10
10
10
10
10
10
10
10
10
10
10
10
10
10
10
10
10
10
10
10
10
10
10
10
10
10
10
10
10
10
10
10
10
10
10
10
10
10
10
10
10
10
10
10
10
10
10
10
10
10
10
10
10
10
10
10
10
10
10
10
10
10
10
10
10
10
10
10
10
10
10
10
10
10
10
10
10
10
10
10
10
10
10
10
10
10
10
10
10
10
10
10
10
10
10
10
10
10
10
10
10
10
CELL_DATA 438
SCALARS TALLY_TAG double 1
LOOKUP_TABLE default
645.7223537 
670.8506842 
646.466984 
611.964076 
614.430568 
636.3819307 
648.510731 
625.0416346 
614.9637936 
633.9916697 
621.5941965 
654.5283837 
633.235294 
807.3426702 
807.4353548 
779.8374588 
780.1733122 
790.3465135 
778.5141589 
804.1931261 
818.3078589 
784.0953661 
767.033531 
643.5028027 
636.9039111 
659.0099036 
666.8389662 
772.6060859 
681.7377811 
648.9779175 
673.7789702 
670.5693475 
689.8804961 
700.2204338 
670.5887904 
659.7787393 
688.4725712 
674.2430945 
666.8206903 
720.6481664 
835.6046892 
863.113244 
867.7648381 
834.0337852 
854.842238 
836.9100233 
812.6600811 
666.3073111 
792.5059253 
864.0838986 
821.5386646 
821.7728387 
803.1999608 
643.054459 
663.157869 
700.5069469 
702.994761 
644.6824574 
683.0352616 
786.9682596 
643.9457848 
652.9370271 
657.8183594 
787.0745341 
642.1902444 
668.1235103 
653.1885859 
719.2949997 
636.7193895 
763.0084327 
647.4464886 
828.1989995 
759.6534104 
810.3693227 
806.2476311 
822.3919071 
739.048902 
806.8828962 
801.7844362 
805.6195372 
753.0243877 
798.5409131 
782.3736432 
750.5323214 
787.7285032 
822.6805413 
783.5123403 
772.495489 
768.4929217 
778.6764549 
744.3383988 
785.3372722 
663.8831985 
647.0311425 
658.9541096 
658.8695136 
811.2678643 
777.1184972 
782.0413843 
745.8551181 
759.2034758 
824.3574595 
812.8832578 
832.7112686 
803.913013 
812.5691268 
860.1943651 
805.6204964 
820.5508674 
823.2834755 
804.1076353 
833.6435754 
841.3356944 
879.0214927 
820.6744642 
784.520276 
635.196796 
662.9990102 
668.3471749 
799.9400123 
676.9316641 
721.2462451 
742.9791982 
704.1881811 
700.6882319 
744.3273026 
721.1026131 
725.9221395 
657.3568772 
688.2314605 
641.726693 
655.1389731 
618.4826946 
611.6584604 
651.1673755 
634.2957884 
631.2744598 
653.6614261 
634.3484567 
643.3455672 
646.5552761 
680.3278554 
664.8220736 
640.3299711 
694.0044029 
678.159876 
667.5925731 
646.4234753 
674.6895287 
643.0523472 
666.4318122 
794.5668118 
791.8074689 
764.3381552 
792.5481322 
845.1839982 
826.8084115 
784.3594442 
759.3125303 
821.6107545 
719.5473249 
813.0319797 
823.7465345 
658.8800173 
663.5482438 
612.7636225 
622.1536222 
632.6831632 
624.8175457 
764.2719861 
755.4111335 
629.4263676 
734.9366432 
664.5038512 
785.3175368 
795.4761702 
802.5804576 
791.8684322 
797.7052992 
800.2798806 
788.7728351 
773.3167727 
759.2473346 
776.5620799 
742.6891778 
755.8534163 
640.5740852 
806.3412587 
789.3892577 
680.1053591 
714.6481646 
668.4196508 
685.4458041 
656.3592204 
731.8226739 
712.1702926 
729.9095362 
730.4293843 
713.7010179 
665.6550607 
690.5317005 
703.2422899 
750.7072946 
719.7093843 
710.7161514 
694.0406858 
712.206999 
649.1158682 
777.545475 
733.1141638 
788.5751236 
741.3464044 
700.5760181 
830.0760805 
699.7033244 
712.7992324 
720.4473667 
773.9726231 
789.1642445 
754.1226646 
752.1760486 
707.404325 
749.6723128 
723.896813 
670.2404334 
658.3972394 
656.4418248 
653.6950128 
681.714565 
633.1866634 
637.6791224 
632.7035858 
644.9790899 
686.8592722 
612.1690274 
667.9494083 
668.9198419 
860.0506471 
816.9346984 
673.6640677 
751.2547766 
806.1025164 
857.4633475 
789.5394754 
782.8000884 
788.512318 
761.4745945 
865.3724016 
719.9919812 
752.6349147 
708.165006 
676.5326242 
725.2002943 
690.2213439 
642.731934 
668.8836377 
669.2036343 
851.0006582 
723.8756105 
843.3910934 
754.2082461 
667.0165807 
808.9224924 
666.5415245 
623.5715143 
679.6468754 
626.5000994 
733.8235216 
716.8574 
633.2041869 
682.8066661 
813.1595788 
825.7066086 
750.0301857 
781.1746969 
732.23978 
717.3126806 
634.6462843 
844.7743951 
888.2024821 
665.6739526 
649.5092128 
676.636233 
666.9113605 
703.3219892 
813.6647057 
671.8529999 
749.6248092 
639.7318987 
641.5980592 
819.2611005 
837.3063364 
633.3906423 
717.0912188 
629.2531725 
843.6934366 
820.0237926 
807.9793957 
734.0612624 
810.4213477 
825.1514821 
825.4147763 
745.8103468 
779.8717913 
745.1079453 
796.6429818 
796.8560876 
625.1404814 
672.8417221 
662.1544599 
625.5026714 
631.0556055 
684.120721 
730.2595025 
720.9089321 
683.4151157 
653.6464588 
730.604351 
605.9512639 
624.9608148 
630.8825105 
871.2830222 
613.287528 
642.2747948 
649.8260167 
643.5159293 
662.0963854 
632.457286 
640.9343504 
623.0867674 
605.5600081 
815.1889003 
702.5329153 
731.0951274 
679.4953802 
632.5559189 
668.9929693 
634.7764576 
643.8186885 
613.9486151 
681.6398621 
610.4273204 
655.6424127 
619.0591571 
665.5968657 
648.6454782 
763.8167506 
822.7097101 
718.1520341 
755.2588413 
730.4396052 
709.1344887 
681.3265327 
628.0123082 
641.7129581 
835.5516422 
802.0266867 
792.2395739 
787.380716 
772.3423966 
709.7924299 
659.7538244 
845.8299046 
862.0364501 
829.3136437 
641.7334619 
643.3699296 
636.5798793 
851.1792613 
676.5502692 
725.3297685 
829.3317594 
854.5685561 
698.586844 
732.4363135 
719.9490691 
766.4307111 
668.8737379 
610.5383886 
649.3187244 
693.0876179 
783.8072255 
636.646388 
660.3348942 
703.6063263 
639.5241441 
633.9620443 
749.7182622 
686.535891 
665.2944956 
737.0367407 
856.4645107 
726.4043308 
642.4056925 
825.1320283 
776.4708821 
848.9982752 
810.7043309 
734.7378259 
708.3666669 
608.3496525 
683.8589953 
670.9356656 
801.0118257 
624.0863897 
634.7308121 
762.2490885 
635.0325999 
678.4963857 
734.0827518 
663.6814572 
783.646319 
867.7519255 
823.4286984 
761.8037705 
799.2871313 
618.2561148 
733.8784822 
713.7537593 
793.7892853 
794.445143 
837.5251734 
747.5567154 
768.6953168 
648.1906664 
654.5966949 
863.1818244 
804.3638159 
826.9957121 
858.1536141 
854.448297 
863.4923239 
872.9070393 
816.0117725 
770.3490275 
828.0982507 
683.2681794 
672.662754 
SCALARS ERROR_TAG double 1
LOOKUP_TABLE default
0.02449881891 
0.02488432729 
0.02205829596 
0.02189681397 
0.02232770687 
0.02508575706 
0.02217274569 
0.02382378885 
0.03160485193 
0.02545650437 
0.03001371588 
0.02413082065 
0.03189055425 
0.02140043239 
0.02130384864 
0.02195139412 
0.01996513539 
0.01952954867 
0.02074881019 
0.02199160981 
0.02050286987 
0.02096928141 
0.02295371375 
0.02449050569 
0.02178892746 
0.02317184563 
0.02291793129 
0.02234465275 
0.02064154896 
0.02231874618 
0.02496178176 
0.02352462348 
0.02265047513 
0.02071047698 
0.02098434435 
0.02371384342 
0.01757096291 
0.02355650864 
0.02577751978 
0.02014421801 
0.02150438775 
0.01999207856 
0.01909869954 
0.01991005655 
0.01927124929 
0.02048518592 
0.02324674695 
0.02158929405 
0.02020424416 
0.02069477398 
0.01957489506 
0.02107630854 
0.01821901041 
0.02489816151 
0.02413456182 
0.02207729352 
0.02045286289 
0.02669889712 
0.02362453313 
0.02213900026 
0.02473370415 
0.02341254445 
0.02013572446 
0.01975029315 
0.02726080847 
0.02494538185 
0.02324041225 
0.01877366926 
0.02972785927 
0.02002694919 
0.02418728712 
0.01989658513 
0.01975332064 
0.02158415794 
0.02039457076 
0.02102446549 
0.01812621153 
0.0228791109 
0.02096089113 
0.02246649384 
0.02304801352 
0.02261031952 
0.02235469398 
0.01963349648 
0.02037541943 
0.01978772138 
0.01980015972 
0.02271271442 
0.02070598107 
0.02321524578 
0.02222693984 
0.02203590677 
0.0221156726 
0.02320187461 
0.02162182623 
0.02183829823 
0.02111808 
0.01924041733 
0.02222450427 
0.02110681171 
0.01990030015 
0.02167010726 
0.01928826577 
0.01959309847 
0.02197232361 
0.01934604705 
0.02088783825 
0.01853793003 
0.02008812305 
0.02062736312 
0.02046702153 
0.0237615963 
0.02373690071 
0.02596079368 
0.02239131477 
0.02251871049 
0.02310824046 
0.02301703491 
0.02285500092 
0.0189475471 
0.02268964123 
0.01986231635 
0.02162212969 
0.02029353566 
0.02245758862 
0.02320237556 
0.0250813133 
0.02037375274 
0.02287512223 
0.02263058946 
0.02210985392 
0.02149926728 
0.02787187926 
0.02846676206 
0.02474675953 
0.02138742395 
0.02538966602 
0.02230513774 
0.02538840004 
0.02284211336 
0.02356630299 
0.02453613944 
0.02555266852 
0.02813584115 
0.02456826493 
0.02463306931 
0.02190227614 
0.02383769884 
0.02125410463 
0.02084452936 
0.02043018272 
0.0212384028 
0.02739822211 
0.02115710367 
0.02111748363 
0.01855724975 
0.01971618535 
0.0225025263 
0.01958334553 
0.01928850251 
0.02201883398 
0.01984383962 
0.02010595912 
0.02072213148 
0.02010344143 
0.02575241082 
0.02120532079 
0.02096981011 
0.02304701313 
0.01989833583 
0.02079636168 
0.0234400924 
0.02282514379 
0.02168998186 
0.01978759845 
0.02151593974 
0.01994520885 
0.020439196 
0.01926643953 
0.02249123187 
0.0191950955 
0.01834788827 
0.01981246875 
0.02272994383 
0.02326344332 
0.01860645889 
0.02175421193 
0.02044957902 
0.01938106458 
0.02009322192 
0.0221641783 
0.02032271975 
0.02221186627 
0.02481857605 
0.02191317406 
0.01931104911 
0.02378001797 
0.01909889946 
0.01814326594 
0.02060270606 
0.02169574776 
0.02241601685 
0.02216251798 
0.02457899862 
0.02324584943 
0.02342353118 
0.01949656586 
0.02448215554 
0.02128225392 
0.02179021752 
0.02060969078 
0.02448561153 
0.02178702872 
0.01886327546 
0.01988725154 
0.02202282931 
0.01969063027 
0.01915115874 
0.02103781241 
0.02056241671 
0.02421127446 
0.02267434096 
0.02218276382 
0.02160537758 
0.02529434628 
0.02482129381 
0.02191166542 
0.02041641625 
0.02194829546 
0.02349716893 
0.02437077645 
0.02265276549 
0.02175915614 
0.02011950834 
0.032994272 
0.02461500464 
0.02610144342 
0.01698694105 
0.02076466646 
0.02311532032 
0.01794004755 
0.01882636869 
0.02014553873 
0.02033838057 
0.01892315434 
0.02082958519 
0.01669985041 
0.02362856954 
0.01842688651 
0.02375780866 
0.01981320247 
0.022787675 
0.0214496778 
0.01875083606 
0.02276626481 
0.02441931185 
0.02467728028 
0.02024348283 
0.02009395876 
0.01923741205 
0.01967673167 
0.02471669227 
0.02079800279 
0.02402510624 
0.0244508328 
0.02310881597 
0.02753755441 
0.01993229454 
0.02116991945 
0.02924015623 
0.0218306124 
0.0208822002 
0.02024155672 
0.02017147134 
0.01800173844 
0.02480874326 
0.02294831855 
0.02351230491 
0.02270850203 
0.02465659968 
0.02085081339 
0.02432481028 
0.01882839718 
0.02236725322 
0.01983206081 
0.01797568966 
0.01972887031 
0.01921860867 
0.02258610212 
0.03208013544 
0.02038966378 
0.01916506177 
0.02442422711 
0.0203778492 
0.01998836895 
0.02258838528 
0.01849941079 
0.02290651295 
0.02056338878 
0.01927006038 
0.0189388398 
0.01776017271 
0.02364709838 
0.02176163066 
0.02166744484 
0.02246673239 
0.02137305877 
0.02014750977 
0.02313574339 
0.02643985892 
0.02214162342 
0.02310982658 
0.02110577085 
0.01995376184 
0.02048127288 
0.02151005932 
0.02217865998 
0.01992025184 
0.02316817989 
0.02284245298 
0.02307808953 
0.0230966495 
0.03126946365 
0.02388675759 
0.02556707729 
0.01969422218 
0.02261446125 
0.03354645199 
0.0240698535 
0.02523316728 
0.02287807535 
0.01894770347 
0.01694231957 
0.01907496607 
0.02056125715 
0.02181523038 
0.02434463665 
0.02126128415 
0.02100404526 
0.02357774074 
0.02112601359 
0.02360115867 
0.0230961227 
0.02076052702 
0.02452985489 
0.02313846079 
0.02185957919 
0.02102283976 
0.01826854708 
0.02236911793 
0.02024667173 
0.01902481692 
0.0218705188 
0.02739092448 
0.02406767239 
0.02086879409 
0.01954662904 
0.02112006946 
0.02167253325 
0.01831804678 
0.02051322945 
0.02247271467 
0.01862498377 
0.02074857884 
0.01762072536 
0.02341938304 
0.02110191676 
0.02284421105 
0.02096594238 
0.01920977289 
0.02080133505 
0.02064284109 
0.02623875225 
0.02046210234 
0.02027285307 
0.0226357641 
0.02116368855 
0.02252787489 
0.02349976027 
0.020905473 
0.02101775742 
0.01907862205 
0.02475666969 
0.02519853273 
0.02079094482 
0.02274516866 
0.02478599385 
0.01930798645 
0.02418692403 
0.02141424234 
0.02033340558 
0.02568805684 
0.0209940162 
0.02363161544 
0.01994602506 
0.02359561379 
0.01757837582 
0.01858380546 
0.02065145341 
0.02023026592 
0.02216439874 
0.02272886943 
0.02328101652 
0.02221189424 
0.02430453405 
0.02438023375 
0.02144456154 
0.02077887703 
0.02572034001 
0.01628270482 
0.02060193373 
0.018412153 
0.02170622529 
0.01939657809 
0.02093442028 
0.02063755179 
0.02819342253 
0.02086236103 
0.0207259263 
0.01962253509 
0.02186533753 
0.02081687249 
0.02025030939 
0.01901488158 
0.02037731696 
0.02283739609 
0.02207518376 
0.01989787357 
0.02555489245 
0.02133900375 
0.01923691806 
0.0255092903 
0.01804532968 
0.02100384496 
0.02342511134 
0.01767827587 
0.02449485686 
0.02223980834 
