# vtk DataFile Version 3.0
MOAB 4.9.0
ASCII
DATASET UNSTRUCTURED_GRID
POINTS 1225 double
0 -0.5 0.5
0 0.5 0.5
0 -0.3333333333 0.5
0 -0.1666666667 0.5
0 0 0.5
0 0.1666666667 0.5
0 0.3333333333 0.5
0 0.5 -0.5
0 0.5 0.3333333333
0 0.5 0.1666666667
0 0.5 0
0 0.5 -0.1666666667
0 0.5 -0.3333333333
0 -0.5 -0.5
0 0.3333333333 -0.5
0 0.1666666667 -0.5
0 0 -0.5
0 -0.1666666667 -0.5
0 -0.3333333333 -0.5
0 -0.5 -0.3333333333
0 -0.5 -0.1666666667
0 -0.5 0
0 -0.5 0.1666666667
0 -0.5 0.3333333333
0 -0.3333333333 0.3333333333
0 -0.1666666667 0.3333333333
0 -6.938893904e-18 0.3333333333
0 0.1666666667 0.3333333333
0 0.3333333333 0.3333333333
0 -0.3333333333 0.1666666667
0 -0.1666666667 0.1666666667
0 -1.387778781e-17 0.1666666667
0 0.1666666667 0.1666666667
0 0.3333333333 0.1666666667
0 -0.3333333333 0
0 -0.1666666667 0
0 0 0
0 0.1666666667 0
0 0.3333333333 0
0 -0.3333333333 -0.1666666667
0 -0.1666666667 -0.1666666667
0 0 -0.1666666667
0 0.1666666667 -0.1666666667
0 0.3333333333 -0.1666666667
0 -0.3333333333 -0.3333333333
0 -0.1666666667 -0.3333333333
0 0 -0.3333333333
0 0.1666666667 -0.3333333333
0 0.3333333333 -0.3333333333
2.5 -0.5 -0.5
0.2083333333 -0.5 -0.5
0.4166666667 -0.5 -0.5
0.625 -0.5 -0.5
0.8333333333 -0.5 -0.5
1.041666667 -0.5 -0.5
1.25 -0.5 -0.5
1.458333333 -0.5 -0.5
1.666666667 -0.5 -0.5
1.875 -0.5 -0.5
2.083333333 -0.5 -0.5
2.291666667 -0.5 -0.5
2.5 -0.5 0.5
2.5 -0.5 0.3333333333
2.5 -0.5 0.1666666667
2.5 -0.5 0
2.5 -0.5 -0.1666666667
2.5 -0.5 -0.3333333333
2.291666667 -0.5 0.5
2.083333333 -0.5 0.5
1.875 -0.5 0.5
1.666666667 -0.5 0.5
1.458333333 -0.5 0.5
1.25 -0.5 0.5
1.041666667 -0.5 0.5
0.8333333333 -0.5 0.5
0.625 -0.5 0.5
0.4166666667 -0.5 0.5
0.2083333333 -0.5 0.5
0.2083333333 -0.5 -0.3333333333
0.4166666667 -0.5 -0.3333333333
0.625 -0.5 -0.3333333333
0.8333333333 -0.5 -0.3333333333
1.041666667 -0.5 -0.3333333333
1.25 -0.5 -0.3333333333
1.458333333 -0.5 -0.3333333333
1.666666667 -0.5 -0.3333333333
1.875 -0.5 -0.3333333333
2.083333333 -0.5 -0.3333333333
2.291666667 -0.5 -0.3333333333
0.2083333333 -0.5 -0.1666666667
0.4166666667 -0.5 -0.1666666667
0.625 -0.5 -0.1666666667
0.8333333333 -0.5 -0.1666666667
1.041666667 -0.5 -0.1666666667
1.25 -0.5 -0.1666666667
1.458333333 -0.5 -0.1666666667
1.666666667 -0.5 -0.1666666667
1.875 -0.5 -0.1666666667
2.083333333 -0.5 -0.1666666667
2.291666667 -0.5 -0.1666666667
0.2083333333 -0.5 0
0.4166666667 -0.5 0
0.625 -0.5 0
0.8333333333 -0.5 0
1.041666667 -0.5 0
1.25 -0.5 0
1.458333333 -0.5 0
1.666666667 -0.5 0
1.875 -0.5 0
2.083333333 -0.5 0
2.291666667 -0.5 0
0.2083333333 -0.5 0.1666666667
0.4166666667 -0.5 0.1666666667
0.625 -0.5 0.1666666667
0.8333333333 -0.5 0.1666666667
1.041666667 -0.5 0.1666666667
1.25 -0.5 0.1666666667
1.458333333 -0.5 0.1666666667
1.666666667 -0.5 0.1666666667
1.875 -0.5 0.1666666667
2.083333333 -0.5 0.1666666667
2.291666667 -0.5 0.1666666667
0.2083333333 -0.5 0.3333333333
0.4166666667 -0.5 0.3333333333
0.625 -0.5 0.3333333333
0.8333333333 -0.5 0.3333333333
1.041666667 -0.5 0.3333333333
1.25 -0.5 0.3333333333
1.458333333 -0.5 0.3333333333
1.666666667 -0.5 0.3333333333
1.875 -0.5 0.3333333333
2.083333333 -0.5 0.3333333333
2.291666667 -0.5 0.3333333333
2.5 0.5 -0.5
2.291666667 0.5 -0.5
2.083333333 0.5 -0.5
1.875 0.5 -0.5
1.666666667 0.5 -0.5
1.458333333 0.5 -0.5
1.25 0.5 -0.5
1.041666667 0.5 -0.5
0.8333333333 0.5 -0.5
0.625 0.5 -0.5
0.4166666667 0.5 -0.5
0.2083333333 0.5 -0.5
2.5 -0.3333333333 -0.5
2.5 -0.1666666667 -0.5
2.5 0 -0.5
2.5 0.1666666667 -0.5
2.5 0.3333333333 -0.5
0.2083333333 0.3333333333 -0.5
0.4166666667 0.3333333333 -0.5
0.625 0.3333333333 -0.5
0.8333333333 0.3333333333 -0.5
1.041666667 0.3333333333 -0.5
1.25 0.3333333333 -0.5
1.458333333 0.3333333333 -0.5
1.666666667 0.3333333333 -0.5
1.875 0.3333333333 -0.5
2.083333333 0.3333333333 -0.5
2.291666667 0.3333333333 -0.5
0.2083333333 0.1666666667 -0.5
0.4166666667 0.1666666667 -0.5
0.625 0.1666666667 -0.5
0.8333333333 0.1666666667 -0.5
1.041666667 0.1666666667 -0.5
1.25 0.1666666667 -0.5
1.458333333 0.1666666667 -0.5
1.666666667 0.1666666667 -0.5
1.875 0.1666666667 -0.5
2.083333333 0.1666666667 -0.5
2.291666667 0.1666666667 -0.5
0.2083333333 0 -0.5
0.4166666667 0 -0.5
0.625 0 -0.5
0.8333333333 0 -0.5
1.041666667 0 -0.5
1.25 0 -0.5
1.458333333 0 -0.5
1.666666667 0 -0.5
1.875 0 -0.5
2.083333333 0 -0.5
2.291666667 0 -0.5
0.2083333333 -0.1666666667 -0.5
0.4166666667 -0.1666666667 -0.5
0.625 -0.1666666667 -0.5
0.8333333333 -0.1666666667 -0.5
1.041666667 -0.1666666667 -0.5
1.25 -0.1666666667 -0.5
1.458333333 -0.1666666667 -0.5
1.666666667 -0.1666666667 -0.5
1.875 -0.1666666667 -0.5
2.083333333 -0.1666666667 -0.5
2.291666667 -0.1666666667 -0.5
0.2083333333 -0.3333333333 -0.5
0.4166666667 -0.3333333333 -0.5
0.625 -0.3333333333 -0.5
0.8333333333 -0.3333333333 -0.5
1.041666667 -0.3333333333 -0.5
1.25 -0.3333333333 -0.5
1.458333333 -0.3333333333 -0.5
1.666666667 -0.3333333333 -0.5
1.875 -0.3333333333 -0.5
2.083333333 -0.3333333333 -0.5
2.291666667 -0.3333333333 -0.5
2.5 0.5 0.5
2.5 0.5 -0.3333333333
2.5 0.5 -0.1666666667
2.5 0.5 0
2.5 0.5 0.1666666667
2.5 0.5 0.3333333333
2.5 0.3333333333 0.5
2.5 0.1666666667 0.5
2.5 0 0.5
2.5 -0.1666666667 0.5
2.5 -0.3333333333 0.5
2.5 0.3333333333 -0.3333333333
2.5 0.3333333333 -0.1666666667
2.5 0.3333333333 -6.938893904e-18
2.5 0.3333333333 0.1666666667
2.5 0.3333333333 0.3333333333
2.5 0.1666666667 -0.3333333333
2.5 0.1666666667 -0.1666666667
2.5 0.1666666667 -1.387778781e-17
2.5 0.1666666667 0.1666666667
2.5 0.1666666667 0.3333333333
2.5 0 -0.3333333333
2.5 0 -0.1666666667
2.5 0 0
2.5 0 0.1666666667
2.5 0 0.3333333333
2.5 -0.1666666667 -0.3333333333
2.5 -0.1666666667 -0.1666666667
2.5 -0.1666666667 0
2.5 -0.1666666667 0.1666666667
2.5 -0.1666666667 0.3333333333
2.5 -0.3333333333 -0.3333333333
2.5 -0.3333333333 -0.1666666667
2.5 -0.3333333333 0
2.5 -0.3333333333 0.1666666667
2.5 -0.3333333333 0.3333333333
0.2083333333 0.5 0.5
0.4166666667 0.5 0.5
0.625 0.5 0.5
0.8333333333 0.5 0.5
1.041666667 0.5 0.5
1.25 0.5 0.5
1.458333333 0.5 0.5
1.666666667 0.5 0.5
1.875 0.5 0.5
2.083333333 0.5 0.5
2.291666667 0.5 0.5
0.2083333333 -0.3333333333 0.5
0.4166666667 -0.3333333333 0.5
0.625 -0.3333333333 0.5
0.8333333333 -0.3333333333 0.5
1.041666667 -0.3333333333 0.5
1.25 -0.3333333333 0.5
1.458333333 -0.3333333333 0.5
1.666666667 -0.3333333333 0.5
1.875 -0.3333333333 0.5
2.083333333 -0.3333333333 0.5
2.291666667 -0.3333333333 0.5
0.2083333333 -0.1666666667 0.5
0.4166666667 -0.1666666667 0.5
0.625 -0.1666666667 0.5
0.8333333333 -0.1666666667 0.5
1.041666667 -0.1666666667 0.5
1.25 -0.1666666667 0.5
1.458333333 -0.1666666667 0.5
1.666666667 -0.1666666667 0.5
1.875 -0.1666666667 0.5
2.083333333 -0.1666666667 0.5
2.291666667 -0.1666666667 0.5
0.2083333333 0 0.5
0.4166666667 0 0.5
0.625 0 0.5
0.8333333333 0 0.5
1.041666667 0 0.5
1.25 0 0.5
1.458333333 0 0.5
1.666666667 0 0.5
1.875 0 0.5
2.083333333 0 0.5
2.291666667 0 0.5
0.2083333333 0.1666666667 0.5
0.4166666667 0.1666666667 0.5
0.625 0.1666666667 0.5
0.8333333333 0.1666666667 0.5
1.041666667 0.1666666667 0.5
1.25 0.1666666667 0.5
1.458333333 0.1666666667 0.5
1.666666667 0.1666666667 0.5
1.875 0.1666666667 0.5
2.083333333 0.1666666667 0.5
2.291666667 0.1666666667 0.5
0.2083333333 0.3333333333 0.5
0.4166666667 0.3333333333 0.5
0.625 0.3333333333 0.5
0.8333333333 0.3333333333 0.5
1.041666667 0.3333333333 0.5
1.25 0.3333333333 0.5
1.458333333 0.3333333333 0.5
1.666666667 0.3333333333 0.5
1.875 0.3333333333 0.5
2.083333333 0.3333333333 0.5
2.291666667 0.3333333333 0.5
0.2083333333 0.5 0.3333333333
0.4166666667 0.5 0.3333333333
0.625 0.5 0.3333333333
0.8333333333 0.5 0.3333333333
1.041666667 0.5 0.3333333333
1.25 0.5 0.3333333333
1.458333333 0.5 0.3333333333
1.666666667 0.5 0.3333333333
1.875 0.5 0.3333333333
2.083333333 0.5 0.3333333333
2.291666667 0.5 0.3333333333
0.2083333333 0.5 0.1666666667
0.4166666667 0.5 0.1666666667
0.625 0.5 0.1666666667
0.8333333333 0.5 0.1666666667
1.041666667 0.5 0.1666666667
1.25 0.5 0.1666666667
1.458333333 0.5 0.1666666667
1.666666667 0.5 0.1666666667
1.875 0.5 0.1666666667
2.083333333 0.5 0.1666666667
2.291666667 0.5 0.1666666667
0.2083333333 0.5 0
0.4166666667 0.5 0
0.625 0.5 0
0.8333333333 0.5 0
1.041666667 0.5 0
1.25 0.5 0
1.458333333 0.5 0
1.666666667 0.5 0
1.875 0.5 0
2.083333333 0.5 0
2.291666667 0.5 0
0.2083333333 0.5 -0.1666666667
0.4166666667 0.5 -0.1666666667
0.625 0.5 -0.1666666667
0.8333333333 0.5 -0.1666666667
1.041666667 0.5 -0.1666666667
1.25 0.5 -0.1666666667
1.458333333 0.5 -0.1666666667
1.666666667 0.5 -0.1666666667
1.875 0.5 -0.1666666667
2.083333333 0.5 -0.1666666667
2.291666667 0.5 -0.1666666667
0.2083333333 0.5 -0.3333333333
0.4166666667 0.5 -0.3333333333
0.625 0.5 -0.3333333333
0.8333333333 0.5 -0.3333333333
1.041666667 0.5 -0.3333333333
1.25 0.5 -0.3333333333
1.458333333 0.5 -0.3333333333
1.666666667 0.5 -0.3333333333
1.875 0.5 -0.3333333333
2.083333333 0.5 -0.3333333333
2.291666667 0.5 -0.3333333333
0.2083333333 -0.3333333333 -0.3333333333
0.4166666667 -0.3333333333 -0.3333333333
0.625 -0.3333333333 -0.3333333333
0.8333333333 -0.3333333333 -0.3333333333
1.041666667 -0.3333333333 -0.3333333333
1.25 -0.3333333333 -0.3333333333
1.458333333 -0.3333333333 -0.3333333333
1.666666667 -0.3333333333 -0.3333333333
1.875 -0.3333333333 -0.3333333333
2.083333333 -0.3333333333 -0.3333333333
2.291666667 -0.3333333333 -0.3333333333
0.2083333333 -0.1666666667 -0.3333333333
0.4166666667 -0.1666666667 -0.3333333333
0.625 -0.1666666667 -0.3333333333
0.8333333333 -0.1666666667 -0.3333333333
1.041666667 -0.1666666667 -0.3333333333
1.25 -0.1666666667 -0.3333333333
1.458333333 -0.1666666667 -0.3333333333
1.666666667 -0.1666666667 -0.3333333333
1.875 -0.1666666667 -0.3333333333
2.083333333 -0.1666666667 -0.3333333333
2.291666667 -0.1666666667 -0.3333333333
0.2083333333 0 -0.3333333333
0.4166666667 1.387778781e-17 -0.3333333333
0.625 -1.387778781e-17 -0.3333333333
0.8333333333 -1.387778781e-17 -0.3333333333
1.041666667 5.551115123e-17 -0.3333333333
1.25 1.387778781e-17 -0.3333333333
[...]
POINT_DATA 1225
SCALARS KDE_TALLY_TAG double 1
LOOKUP_TABLE default
78.444656 
78.06211053 
75.95219439 
74.64432845 
76.92268191 
78.16961196 
77.74161571 
77.00114642 
77.29588638 
78.56851052 
81.9390908 
82.14213938 
77.68845663 
76.78189997 
78.96391308 
74.42817254 
79.15521563 
79.27545561 
73.11372879 
75.14343548 
76.05809371 
76.16230178 
77.94843585 
77.08145384 
71.2700338 
75.85757128 
78.2359359 
77.84335461 
75.02959019 
75.1095117 
76.03602677 
79.16418701 
77.34555367 
73.25704872 
75.74138121 
74.43435365 
75.99141665 
76.27046044 
77.51378325 
75.63424912 
79.67518275 
78.8750712 
78.5081352 
77.61825354 
74.33053523 
77.16953778 
77.03270267 
78.48080544 
75.70855138 
457.3355663 
75.66486499 
80.79227413 
79.41039058 
78.38619033 
77.88119175 
76.96208392 
77.37647202 
74.49975482 
77.85640798 
77.84237023 
77.08630873 
478.1443103 
475.9235876 
480.2293999 
487.6586603 
470.8860538 
466.6708807 
78.5599862 
76.40252057 
80.64933843 
77.89713007 
74.5942888 
73.84348218 
77.47937057 
78.14610279 
75.45766319 
74.51053142 
74.81407941 
81.66080954 
81.2602213 
75.8923247 
74.40074398 
74.85864196 
77.46678415 
78.62611535 
77.59025475 
78.49166429 
79.87099353 
74.85470595 
81.73322324 
77.61921424 
76.3476287 
75.07437783 
74.9951024 
80.65915995 
78.15008059 
76.05771023 
78.85899852 
78.10765849 
76.18283937 
79.02515283 
77.60243052 
75.87128886 
78.45506906 
74.19136369 
76.58140606 
79.46672576 
76.84525607 
79.96885953 
78.66964909 
78.3328414 
76.7787478 
77.76584812 
79.00540685 
77.99805748 
79.42684571 
78.27811532 
77.54367379 
78.35378019 
77.06547211 
78.60738681 
78.40567707 
78.09519785 
79.74750646 
78.99755936 
78.71343188 
77.40098147 
75.07530223 
74.47015861 
75.63840779 
77.62938648 
78.4435379 
80.35082614 
453.474318 
77.96948918 
76.14539917 
80.86731304 
75.07776665 
78.55400402 
75.51983554 
75.11250341 
76.6063864 
79.61831956 
73.84330985 
75.47238844 
457.5608008 
427.7524998 
462.622775 
453.8775697 
464.8285921 
76.90470105 
77.04038267 
77.91356579 
78.61913555 
76.07724436 
76.34537406 
76.77752534 
76.59878679 
75.85602821 
80.34517645 
76.24963706 
78.90145279 
77.83584678 
77.71611182 
79.36165516 
78.26749488 
78.37164076 
75.40991463 
76.29130996 
74.98439372 
75.71355575 
79.7497139 
74.8584956 
79.30739905 
81.19497535 
78.97783247 
79.00220316 
76.15810587 
79.16956149 
76.46826455 
77.11077009 
78.15197634 
74.62476888 
77.42388265 
79.51099467 
78.46948777 
78.3443416 
78.63405522 
81.56813583 
78.01654891 
79.79138907 
74.84295609 
79.82730922 
75.74573172 
77.60602938 
76.13831353 
78.30858801 
78.86761201 
74.31259945 
77.91025062 
82.16701344 
77.61254296 
74.90244689 
75.20543575 
78.29365607 
464.4261747 
476.102775 
476.2885191 
469.4673669 
477.5456086 
469.7451892 
470.4295055 
468.0607427 
454.0238757 
486.7582631 
493.774587 
488.3017421 
482.0299411 
470.7786633 
462.920572 
464.9022581 
484.6469982 
468.4758047 
450.9669614 
482.1582723 
450.3068912 
433.5422593 
469.1682387 
476.3747776 
449.3531094 
459.9338572 
452.6294173 
473.9558854 
477.1012795 
477.9891718 
452.2393443 
449.5326393 
461.7739447 
493.3391295 
458.6919818 
492.5598215 
76.45285277 
75.55645402 
78.51783016 
77.17257139 
78.00059551 
75.23970114 
77.19884275 
77.62774613 
75.10007563 
80.71870703 
78.22896186 
76.10746008 
78.13325197 
77.20356912 
79.02761605 
77.73787036 
79.55667465 
74.55084495 
77.55152684 
77.35700919 
78.03453868 
78.00366387 
76.0505024 
76.46804039 
78.44037077 
74.71461774 
74.37659773 
77.76173085 
77.46300557 
77.27831817 
77.2569053 
76.28716355 
76.56556848 
73.99830081 
74.84939411 
76.052344 
76.74740712 
74.96617678 
77.50146718 
74.94852738 
78.05846296 
75.89598629 
79.40564318 
78.45719642 
78.50158451 
77.97216901 
73.704992 
80.68682873 
75.84231709 
77.02164621 
76.49473023 
75.42190518 
76.32243061 
74.93032593 
76.4136607 
74.26958045 
76.87161312 
74.77535821 
76.74234012 
79.1313425 
75.54136685 
74.7702406 
75.57745422 
78.05893803 
76.32886692 
77.20907517 
76.32280279 
75.60877361 
77.99986038 
75.10083924 
76.32346758 
76.80837913 
78.02915157 
72.05624486 
77.45064165 
75.14881009 
79.95920275 
78.22713982 
79.26329829 
77.54536846 
75.33373789 
75.43222138 
77.5263416 
81.82587865 
75.21756257 
75.57879317 
76.8606748 
86.0200857 
76.48760541 
77.22688267 
73.43703651 
81.51336464 
77.36906459 
78.10423589 
77.76814048 
75.76047277 
77.99717328 
79.45575256 
80.38284955 
77.29763268 
75.97677267 
77.01560523 
76.07822114 
77.1897871 
76.98356428 
76.98834651 
77.77380754 
77.03889915 
78.21192499 
77.66725542 
76.37835433 
77.89381673 
78.03096391 
76.03628176 
76.87440403 
79.11041646 
77.83514828 
73.7403118 
78.99633591 
77.92680377 
77.53395489 
76.21597944 
78.84036994 
78.73421099 
76.38846274 
75.60474146 
74.04097092 
77.77369765 
75.22536625 
75.93642879 
77.41264556 
78.12281967 
79.4848727 
79.99341243 
79.07535982 
75.25669086 
78.47766098 
75.59765593 
78.46164424 
79.61307109 
75.32181023 
77.24802184 
75.00930319 
78.42419608 
78.47849899 
77.56718035 
78.7041799 
78.36798262 
78.47979267 
79.228418 
76.17239729 
74.60694599 
78.69606056 
78.28350531 
78.60661452 
75.61614826 
77.45222923 
77.53861579 
78.05500615 
79.666529 
80.42997014 
77.23213369 
74.87019729 
77.26145779 
77.58305701 
76.08857871 
75.76160173 
77.21571208 
76.60153973 
74.69076276 
77.8458475 
79.85236494 
79.016362 
75.69972039 
74.65930755 
76.55256178 
79.64734462 
75.95059905 
80.19520637 
77.32496856 
77.32511553 
76.83260724 
77.61781354 
75.13328499 
80.29681125 
77.56293399 
73.99796041 
75.26911938 
78.74323331 
76.37705972 
74.41833492 
78.14555506 
79.99993103 
77.76242854 
76.59488178 
77.98789964 
74.8950407 
78.26945032 
76.57266152 
78.08538498 
79.13295292 
78.35657716 
80.80523639 
78.14381707 
76.16114213 
76.51842392 
73.508246 
78.29810676 
76.91059014 
78.28947295 
73.15422831 
76.47282453 
76.43724192 
77.41562839 
77.58554347 
79.48301586 
74.91433065 
76.35370947 
73.88356738 
78.59546057 
77.02390237 
74.9451248 
75.93929664 
77.74363256 
80.77394934 
76.41210758 
77.86647258 
77.36549085 
74.47623514 
79.29416846 
79.69365105 
77.1116604 
77.19394777 
74.25906621 
78.84970349 
79.06055382 
78.09382371 
77.30495666 
74.68697811 
78.5848646 
77.94669445 
78.1608387 
74.91337908 
76.14409097 
83.20293785 
75.98369804 
74.7891622 
78.45476705 
80.57997486 
78.51065869 
77.84466181 
81.81490815 
74.69753107 
76.05743133 
77.38377504 
78.6887504 
76.59565723 
78.22538582 
79.61831446 
75.95614899 
79.3552398 
77.48224933 
79.50771719 
77.78406569 
75.29539253 
77.12245011 
79.52238428 
73.64248565 
78.02383033 
76.49292937 
76.78188183 
75.74052314 
74.16591303 
75.68167353 
77.67255457 
76.8707081 
80.79156586 
75.27877751 
75.88249391 
75.21364748 
76.33333373 
73.18394127 
77.2018835 
77.70890988 
74.94714167 
76.05955064 
76.87306309 
79.07956109 
78.45685592 
78.04276496 
78.88728671 
79.71143326 
75.85278224 
80.12585765 
79.07009451 
79.42060407 
78.04903299 
76.9982797 
77.73975706 
81.05773417 
78.21615879 
79.66414499 
71.73886863 
79.33488442 
76.83202216 
78.67390032 
75.61537921 
77.95556379 
75.98505248 
76.08036376 
76.94394092 
78.84264938 
78.21743854 
75.2428422 
77.83613725 
78.84950751 
77.1246074 
79.59356917 
77.68183336 
75.62666726 
74.57254776 
79.25560234 
75.58936529 
75.27377543 
74.55944906 
78.69913634 
79.81295068 
79.48121689 
78.06401874 
78.92199726 
78.85152686 
75.71349668 
76.2757029 
73.81742418 
71.9814475 
73.78978551 
78.84220339 
75.94887786 
77.2222483 
75.26010293 
76.27305113 
77.66606662 
79.58899896 
80.42991838 
76.7359273 
77.82517693 
79.39448099 
75.37809237 
74.34730623 
78.12931757 
79.9408604 
77.9795536 
75.54578563 
80.97777871 
80.08956347 
78.41734738 
79.76430755 
78.09458264 
78.23394335 
73.56274607 
76.16027771 
78.37353788 
78.51847816 
75.83498598 
76.42427817 
76.55133976 
77.66827252 
75.3790873 
77.73291493 
76.49197717 
77.27556557 
77.63745034 
80.26408137 
79.50161292 
79.63816965 
77.98067439 
75.6848452 
78.21758759 
75.01027835 
75.5427982 
74.72629518 
77.14306654 
76.39330825 
77.86785172 
79.90147643 
77.98325708 
76.58738673 
77.38838637 
75.55746317 
79.48193236 
77.25548696 
77.04554911 
76.18905937 
75.07991151 
75.37410463 
78.64904911 
615.5256177 
823.1552236 
805.6439167 
792.3354993 
771.0112813 
698.8470217 
748.2130632 
688.1251719 
673.2558918 
671.9829175 
639.1840544 
611.0733496 
624.3261067 
615.7226801 
616.6051386 
635.8546507 
629.7377505 
646.8932847 
646.2822851 
610.90552 
661.8267754 
711.8175191 
746.6173886 
695.1806398 
737.8933252 
776.5305556 
787.5498279 
812.1737246 
795.2181249 
862.0510246 
818.8362481 
791.2381524 
737.8140843 
723.4705896 
741.4452102 
703.1376895 
729.2525938 
650.936938 
649.9817856 
596.5612403 
838.4264662 
802.4669825 
791.4304396 
726.5577093 
714.75405 
728.1344906 
709.3971438 
683.0230899 
661.9154461 
645.8501025 
639.8247996 
810.3782642 
790.0051982 
772.1389402 
738.6201108 
715.1973526 
729.9920012 
718.3897279 
693.4749129 
668.8890755 
675.1031672 
639.0642721 
841.1326762 
825.1657801 
787.2524298 
767.6969224 
738.1272682 
728.6640243 
680.0422689 
710.5938151 
647.6310742 
647.8827918 
608.670016 
885.6889047 
800.9513859 
792.3086007 
775.1316708 
803.2184575 
729.6582887 
695.7661851 
666.3899073 
666.3390239 
649.1335913 
639.8313736 
618.9563748 
656.0217089 
626.5437108 
645.3782 
649.9604226 
687.7904281 
730.3118544 
721.5051783 
792.4361273 
800.4980276 
810.4134265 
828.6447946 
595.140114 
640.9592548 
642.9834588 
650.6188881 
626.5630412 
848.6676298 
789.3706106 
808.224378 
781.2592695 
749.8757365 
746.3412391 
711.3932716 
677.1704294 
657.5206171 
645.5475078 
629.9944904 
847.3570307 
803.8782493 
750.5790641 
763.9219609 
760.7385372 
739.5626376 
689.9495586 
642.04266 
639.8660281 
641.7971958 
652.1188444 
797.4660689 
791.3473682 
797.9841916 
787.3096514 
766.7359126 
703.1319085 
699.3581368 
669.4817851 
657.1588059 
636.6506933 
619.6635229 
803.8534733 
800.3119096 
759.3793597 
801.3587334 
761.5778906 
710.5113533 
709.5376906 
675.88402 
667.2568641 
644.5631579 
626.2425121 
822.5148136 
792.3037554 
824.6647891 
745.4503773 
765.2789052 
758.7703595 
691.6198575 
660.221742 
664.6207036 
630.2666524 
598.8204604 
622.5640803 
633.6651712 
625.5319184 
624.3489885 
636.2125496 
618.7478899 
640.6410096 
606.3514879 
591.362134 
607.8573016 
633.7736072 
633.2090348 
602.5978093 
638.0727598 
608.339695 
603.9000355 
622.1509726 
583.1186556 
638.4672041 
621.6562241 
648.8966614 
609.9101905 
588.8638849 
633.5839979 
643.8355199 
630.4068337 
620.2003044 
615.0720163 
632.9025093 
624.8638956 
622.8819337 
633.269776 
624.9940929 
628.5587657 
600.6872151 
625.4821228 
830.2718349 
796.787739 
816.7529829 
779.1677465 
729.5866172 
723.7508815 
699.9748423 
703.121053 
652.2746096 
661.0734406 
638.1298803 
873.6761567 
825.2754716 
786.6069267 
778.2591251 
738.9641424 
733.0332513 
710.5887839 
697.1875449 
650.3667689 
641.4648747 
623.8954885 
822.1625247 
826.8699618 
791.8777841 
773.2483251 
772.8673908 
703.1457499 
715.2412241 
669.1752193 
654.7689761 
604.9932114 
648.4425394 
804.164918 
812.494064 
802.5385877 
759.3959575 
736.4028165 
713.0125021 
689.1680378 
677.068644 
656.4286649 
611.9740569 
627.7549481 
835.3418611 
772.0215523 
819.4491499 
754.7375691 
739.3244178 
693.3895209 
701.4505634 
674.7876284 
642.1096949 
649.5821007 
614.9112385 
791.4228163 
799.3556015 
814.1860756 
765.5082275 
747.5376407 
721.0632201 
742.7783714 
710.8445418 
627.9783919 
674.4337527 
591.9343618 
864.80889 
819.7144785 
840.7502023 
786.4107123 
729.7611088 
706.7532509 
738.6263107 
689.643103 
674.6505314 
665.7701136 
619.7310708 
847.0617028 
811.3094798 
770.4835124 
760.6793618 
740.8290663 
730.8751324 
731.6206437 
673.9919492 
689.3495404 
616.2632823 
617.1897267 
815.8836672 
807.1950335 
795.7055844 
749.5468132 
729.6714466 
718.7019274 
722.9123812 
690.912624 
656.7092901 
649.7005198 
593.6552451 
762.7353648 
817.3170619 
793.9141363 
767.7107117 
743.4993781 
687.3131087 
693.680217 
713.4708842 
671.0758652 
649.6708001 
631.9842064 
851.9607498 
800.6381955 
806.1960274 
798.9368773 
722.8857168 
703.9169798 
702.6677411 
680.8823602 
659.1400167 
642.0409272 
662.126137 
845.1526883 
794.250475 
791.9675477 
756.9625624 
775.5017086 
691.630127 
706.8945564 
684.6537446 
662.3365237 
644.5018287 
630.6168332 
827.0748181 
779.2229144 
822.1054827 
767.064086 
745.2217777 
728.0203932 
707.8482407 
668.3381497 
661.4157782 
658.2691964 
603.6162346 
826.6396768 
801.5798947 
815.9365442 
793.3337218 
772.8614111 
718.9908459 
683.6470646 
669.2539564 
653.927005 
622.5421769 
638.4408586 
828.8317787 
774.7839236 
762.1189177 
784.1684371 
754.0930541 
693.2070015 
703.8010254 
668.0345368 
665.3715487 
634.0481555 
623.8560859 
859.0674132 
794.9251064 
790.4277914 
775.834172 
746.1863374 
710.6313017 
677.3664785 
685.5995334 
645.9220359 
666.701425 
604.2610947 
801.0034586 
827.2050949 
816.5973949 
772.8031968 
703.7582726 
730.2093113 
719.2133394 
681.4257046 
637.4061823 
632.3280756 
618.5727217 
853.0069507 
791.412247 
820.3283108 
761.1003517 
771.1072721 
721.526235 
712.6700303 
692.017465 
647.9714494 
611.7155835 
610.5272688 
825.0205012 
781.2926348 
801.7220438 
781.9382172 
735.5727031 
742.8218449 
675.6664805 
700.9523945 
665.3573495 
644.4891698 
639.9245476 
850.1161008 
810.7174669 
788.69122 
750.7802687 
728.4067093 
697.576635 
677.716933 
665.7851057 
643.3480553 
652.64575 
649.5978721 
843.8392905 
816.9462062 
773.8518877 
776.8256045 
791.1074816 
731.0821453 
684.4414252 
682.775731 
677.0200278 
650.769547 
654.8841287 
815.0067637 
844.8940602 
812.0728143 
770.4710223 
739.2951047 
687.7029143 
716.993192 
660.8687243 
671.3888703 
627.039989 
645.5141211 
843.2301921 
827.3136163 
799.6159938 
743.1521936 
742.4436693 
737.535572 
715.8689591 
683.8845742 
646.834465 
654.7553863 
629.8440617 
833.9306573 
775.4295755 
839.4743833 
748.01608 
739.6619069 
770.8710955 
667.8926818 
693.3514937 
669.8188858 
656.8753924 
654.2075102 
844.0439341 
820.1350733 
799.6926483 
746.0054951 
748.5874825 
743.3992816 
677.7179408 
688.9211059 
684.3421965 
657.1040133 
632.4408118 
804.4703534 
805.359347 
790.0820664 
765.3005276 
732.9362504 
726.4593503 
670.699103 
676.2650045 
661.6972746 
636.9225893 
629.1932575 
842.7162799 
811.6948829 
779.1298304 
739.329106 
704.0763245 
722.6084851 
647.3857002 
665.6015636 
668.341959 
677.5007602 
644.7086465 
837.3344754 
806.5358983 
772.1931244 
759.8362729 
768.5621768 
725.054361 
707.8243412 
624.299636 
679.2787558 
635.199931 
641.7058377 
843.018775 
816.2102702 
800.5706572 
744.5074726 
767.0789853 
698.3196759 
716.8926598 
693.4077144 
657.3174839 
634.0455998 
600.0383322 
813.0527711 
811.9565852 
778.9968579 
769.1060208 
747.5770611 
723.927207 
719.7225499 
667.973962 
692.4804674 
665.5422046 
631.4466933 
809.2342157 
802.4004621 
750.7865765 
747.2157973 
737.7549839 
702.522558 
669.6979355 
685.9387535 
678.9224872 
653.1672979 
653.1272772 
813.8042394 
807.6661204 
776.6646736 
768.9389323 
721.0160397 
700.0616509 
675.4756842 
690.8385858 
682.7834418 
649.5631174 
652.1755251 
827.6811238 
795.7646365 
795.5726799 
744.7287568 
731.3070512 
722.6018293 
674.1702964 
668.1432031 
655.2304408 
700.3509281 
615.2546885 
814.9664767 
797.8985463 
794.4915903 
754.0442752 
749.8161368 
729.2055779 
710.3714743 
627.8442982 
672.2243218 
637.9475468 
622.7373768 
819.0679893 
790.0788817 
794.9873966 
767.3730913 
717.5605596 
717.5875461 
701.0699344 
659.1051689 
668.9064003 
643.4102152 
642.827758 
855.5524606 
799.7617566 
809.623324 
767.061246 
756.2621487 
743.212435 
693.9855403 
661.107675 
666.6920647 
622.821122 
631.690174 
SCALARS KDE_ERROR_TAG double 1
LOOKUP_TABLE default
0.02517933598 
0.02515941379 
0.02507014336 
0.02474506719 
0.02559321183 
0.02482327644 
0.02477213293 
0.02514619741 
0.02471410221 
0.02498353796 
0.0246664052 
0.02460735713 
0.02543418642 
0.02535051945 
0.02507784926 
0.0248702892 
0.0248874514 
0.0249422064 
0.02562111037 
0.02483532928 
0.0253898267 
0.02482063105 
0.02496343901 
0.02488465547 
0.02537606938 
0.02492571719 
0.02497612244 
0.02504917789 
0.02485678218 
0.02489828352 
0.02527987532 
0.02493187502 
0.02493181467 
0.02482819055 
0.02482700018 
0.02512702857 
0.02473675698 
0.02484725755 
0.02471105976 
0.02469272348 
0.02432353435 
0.02437119888 
0.02471915278 
0.02486145439 
0.02532088019 
0.0249405423 
0.02474850537 
0.02520558534 
0.02478688286 
0.02948226307 
0.0249247119 
0.02463653816 
0.02473083997 
0.02487027154 
0.02483631151 
0.02522040005 
0.02481312048 
0.02504781704 
0.02545296656 
0.02487098211 
0.025157165 
0.03020927516 
0.02943010687 
0.03004949214 
0.02997255249 
0.0298117489 
0.02960998421 
0.025210376 
0.02478935448 
0.02489332601 
0.02515977801 
0.02507316597 
0.02511179947 
0.02486481125 
0.02427880826 
0.02493559724 
0.02526827494 
0.02467201442 
0.02434202639 
0.02442710282 
0.0252723992 
0.02489900313 
0.02518338133 
0.02459284678 
0.02467828828 
0.02506557976 
0.02471045144 
0.02450675202 
0.02526421576 
0.02465872885 
0.02487514074 
0.02490924889 
0.02549461021 
0.025226899 
0.02494979988 
0.02421379243 
0.02461846101 
0.02498383463 
0.02494937074 
0.02556041283 
0.0247932886 
0.02508752812 
0.02405159764 
0.02489940949 
0.02534025368 
0.02517408478 
0.02479596779 
0.02498800679 
0.02505958693 
0.02520427912 
0.02501760678 
0.02460484499 
0.02458978652 
0.02428897862 
0.02476894586 
0.0253071021 
0.02481344872 
0.02453328595 
0.02480121435 
0.02496284634 
0.0251871106 
0.02520002569 
0.02465105226 
0.02450869334 
0.02488411211 
0.02524714012 
0.02513540318 
0.02557463731 
0.02539397152 
0.0250719909 
0.02549670051 
0.02491535576 
0.02493350053 
0.03031085293 
0.02515127256 
0.02523101682 
0.02477044998 
0.02529807633 
0.02516039373 
0.02493569569 
0.02495439709 
0.02460534123 
0.02473272158 
0.02546251969 
0.02531397091 
0.03012601889 
0.03024075415 
0.02966715936 
0.03056323383 
0.02998525784 
0.02461246164 
0.02477785809 
0.02492935895 
0.02446140252 
0.02480179617 
0.0250941803 
0.02473650559 
0.02496019402 
0.02472147777 
0.02532154589 
0.02461772437 
0.02486203492 
0.0246094106 
0.02449448046 
0.02422098941 
0.0249263659 
0.02478532289 
0.02509896607 
0.02517410203 
0.02495375508 
0.02517770758 
0.02505470255 
0.02500523216 
0.02437004244 
0.02430338224 
0.02477957048 
0.02474291955 
0.02525669781 
0.02465747275 
0.02545740103 
0.02496390743 
0.02489038663 
0.02594198867 
0.02472285142 
0.02487513355 
0.02447789708 
0.02456544641 
0.02504639435 
0.02490149707 
0.02489422655 
0.02514999664 
0.02496353225 
0.02521756821 
0.02525269739 
0.02478238655 
0.02510761132 
0.02464868369 
0.02477202176 
0.02531699522 
0.02490863847 
0.02459916167 
0.02485770798 
0.02529476395 
0.02548481163 
0.02508824342 
0.02977303574 
0.02931478919 
0.02960134284 
0.03085042947 
0.03056688385 
0.02991020545 
0.03012640976 
0.03058041647 
0.03120326098 
0.03035772765 
0.03017369711 
0.02988479241 
0.02911172058 
0.02993852236 
0.02986321036 
0.02991116174 
0.03011891099 
0.02974993656 
0.03068640226 
0.03008914508 
0.03059617162 
0.02993615403 
0.03005907245 
0.03005141336 
0.03089152366 
0.03025527901 
0.02984255447 
0.02998770612 
0.03032446321 
0.02991628241 
0.02976588315 
0.03008936213 
0.03005078669 
0.02963258144 
0.03036295952 
0.02973881218 
0.02458378498 
0.02496706573 
0.0246401923 
0.02465529126 
0.02491163199 
0.02513801397 
0.02514930158 
0.02565600069 
0.02520237213 
0.02496824218 
0.02497075219 
0.02481286016 
0.02467643797 
0.02498919886 
0.02492319352 
0.02500876139 
0.02466214094 
0.02507458234 
0.02496080731 
0.02530815996 
0.02497989209 
0.02500757478 
0.02506875059 
0.02463975594 
0.0242588011 
0.0250241364 
0.02491387249 
0.02498390206 
0.02520923217 
0.02500077058 
0.02502757441 
0.0251635075 
0.02514235329 
0.02497655866 