# vtk DataFile Version 3.0
MOAB 4.9.0
ASCII
DATASET UNSTRUCTURED_GRID
POINTS 1225 double
0 -0.5 0.5
0 0.5 0.5
0 -0.3333333333 0.5
0 -0.1666666667 0.5
0 0 0.5
0 0.1666666667 0.5
0 0.3333333333 0.5
0 0.5 -0.5
0 0.5 0.3333333333
0 0.5 0.1666666667
0 0.5 0
0 0.5 -0.1666666667
0 0.5 -0.3333333333
0 -0.5 -0.5
0 0.3333333333 -0.5
0 0.1666666667 -0.5
0 0 -0.5
0 -0.1666666667 -0.5
0 -0.3333333333 -0.5
0 -0.5 -0.3333333333
0 -0.5 -0.1666666667
0 -0.5 0
0 -0.5 0.1666666667
0 -0.5 0.3333333333
0 -0.3333333333 0.3333333333
0 -0.1666666667 0.3333333333
0 -6.938893904e-18 0.3333333333
0 0.1666666667 0.3333333333
0 0.3333333333 0.3333333333
0 -0.3333333333 0.1666666667
0 -0.1666666667 0.1666666667
0 -1.387778781e-17 0.1666666667
0 0.1666666667 0.1666666667
0 0.3333333333 0.1666666667
0 -0.3333333333 0
0 -0.1666666667 0
0 0 0
0 0.1666666667 0
0 0.3333333333 0
0 -0.3333333333 -0.1666666667
0 -0.1666666667 -0.1666666667
0 0 -0.1666666667
0 0.1666666667 -0.1666666667
0 0.3333333333 -0.1666666667
0 -0.3333333333 -0.3333333333
0 -0.1666666667 -0.3333333333
0 0 -0.3333333333
0 0.1666666667 -0.3333333333
0 0.3333333333 -0.3333333333
2.5 -0.5 -0.5
0.2083333333 -0.5 -0.5
0.4166666667 -0.5 -0.5
0.625 -0.5 -0.5
0.8333333333 -0.5 -0.5
1.041666667 -0.5 -0.5
1.25 -0.5 -0.5
1.458333333 -0.5 -0.5
1.666666667 -0.5 -0.5
1.875 -0.5 -0.5
2.083333333 -0.5 -0.5
2.291666667 -0.5 -0.5
2.5 -0.5 0.5
2.5 -0.5 0.3333333333
2.5 -0.5 0.1666666667
2.5 -0.5 0
2.5 -0.5 -0.1666666667
2.5 -0.5 -0.3333333333
2.291666667 -0.5 0.5
2.083333333 -0.5 0.5
1.875 -0.5 0.5
1.666666667 -0.5 0.5
1.458333333 -0.5 0.5
1.25 -0.5 0.5
1.041666667 -0.5 0.5
0.8333333333 -0.5 0.5
0.625 -0.5 0.5
0.4166666667 -0.5 0.5
0.2083333333 -0.5 0.5
0.2083333333 -0.5 -0.3333333333
0.4166666667 -0.5 -0.3333333333
0.625 -0.5 -0.3333333333
0.8333333333 -0.5 -0.3333333333
1.041666667 -0.5 -0.3333333333
1.25 -0.5 -0.3333333333
1.458333333 -0.5 -0.3333333333
1.666666667 -0.5 -0.3333333333
1.875 -0.5 -0.3333333333
2.083333333 -0.5 -0.3333333333
2.291666667 -0.5 -0.3333333333
0.2083333333 -0.5 -0.1666666667
0.4166666667 -0.5 -0.1666666667
0.625 -0.5 -0.1666666667
0.8333333333 -0.5 -0.1666666667
1.041666667 -0.5 -0.1666666667
1.25 -0.5 -0.1666666667
1.458333333 -0.5 -0.1666666667
1.666666667 -0.5 -0.1666666667
1.875 -0.5 -0.1666666667
2.083333333 -0.5 -0.1666666667
2.291666667 -0.5 -0.1666666667
0.2083333333 -0.5 0
0.4166666667 -0.5 0
0.625 -0.5 0
0.8333333333 -0.5 0
1.041666667 -0.5 0
1.25 -0.5 0
1.458333333 -0.5 0
1.666666667 -0.5 0
1.875 -0.5 0
2.083333333 -0.5 0
2.291666667 -0.5 0
0.2083333333 -0.5 0.1666666667
0.4166666667 -0.5 0.1666666667
0.625 -0.5 0.1666666667
0.8333333333 -0.5 0.1666666667
1.041666667 -0.5 0.1666666667
1.25 -0.5 0.1666666667
1.458333333 -0.5 0.1666666667
1.666666667 -0.5 0.1666666667
1.875 -0.5 0.1666666667
2.083333333 -0.5 0.1666666667
2.291666667 -0.5 0.1666666667
0.2083333333 -0.5 0.3333333333
0.4166666667 -0.5 0.3333333333
0.625 -0.5 0.3333333333
0.8333333333 -0.5 0.3333333333
1.041666667 -0.5 0.3333333333
1.25 -0.5 0.3333333333
1.458333333 -0.5 0.3333333333
1.666666667 -0.5 0.3333333333
1.875 -0.5 0.3333333333
2.083333333 -0.5 0.3333333333
2.291666667 -0.5 0.3333333333
2.5 0.5 -0.5
2.291666667 0.5 -0.5
2.083333333 0.5 -0.5
1.875 0.5 -0.5
1.666666667 0.5 -0.5
1.458333333 0.5 -0.5
1.25 0.5 -0.5
1.041666667 0.5 -0.5
0.8333333333 0.5 -0.5
0.625 0.5 -0.5
0.4166666667 0.5 -0.5
0.2083333333 0.5 -0.5
2.5 -0.3333333333 -0.5
2.5 -0.1666666667 -0.5
2.5 0 -0.5
2.5 0.1666666667 -0.5
2.5 0.3333333333 -0.5
0.2083333333 0.3333333333 -0.5
0.4166666667 0.3333333333 -0.5
0.625 0.3333333333 -0.5
0.8333333333 0.3333333333 -0.5
1.041666667 0.3333333333 -0.5
1.25 0.3333333333 -0.5
1.458333333 0.3333333333 -0.5
1.666666667 0.3333333333 -0.5
1.875 0.3333333333 -0.5
2.083333333 0.3333333333 -0.5
2.291666667 0.3333333333 -0.5
0.2083333333 0.1666666667 -0.5
0.4166666667 0.1666666667 -0.5
0.625 0.1666666667 -0.5
0.8333333333 0.1666666667 -0.5
1.041666667 0.1666666667 -0.5
1.25 0.1666666667 -0.5
1.458333333 0.1666666667 -0.5
1.666666667 0.1666666667 -0.5
1.875 0.1666666667 -0.5
2.083333333 0.1666666667 -0.5
2.291666667 0.1666666667 -0.5
0.2083333333 0 -0.5
0.4166666667 0 -0.5
0.625 0 -0.5
0.8333333333 0 -0.5
1.041666667 0 -0.5
1.25 0 -0.5
1.458333333 0 -0.5
1.666666667 0 -0.5
1.875 0 -0.5
2.083333333 0 -0.5
2.291666667 0 -0.5
0.2083333333 -0.1666666667 -0.5
0.4166666667 -0.1666666667 -0.5
0.625 -0.1666666667 -0.5
0.8333333333 -0.1666666667 -0.5
1.041666667 -0.1666666667 -0.5
1.25 -0.1666666667 -0.5
1.458333333 -0.1666666667 -0.5
1.666666667 -0.1666666667 -0.5
1.875 -0.1666666667 -0.5
2.083333333 -0.1666666667 -0.5
2.291666667 -0.1666666667 -0.5
0.2083333333 -0.3333333333 -0.5
0.4166666667 -0.3333333333 -0.5
0.625 -0.3333333333 -0.5
0.8333333333 -0.3333333333 -0.5
1.041666667 -0.3333333333 -0.5
1.25 -0.3333333333 -0.5
1.458333333 -0.3333333333 -0.5
1.666666667 -0.3333333333 -0.5
1.875 -0.3333333333 -0.5
2.083333333 -0.3333333333 -0.5
2.291666667 -0.3333333333 -0.5
2.5 0.5 0.5
2.5 0.5 -0.3333333333
2.5 0.5 -0.1666666667
2.5 0.5 0
2.5 0.5 0.1666666667
2.5 0.5 0.3333333333
2.5 0.3333333333 0.5
2.5 0.1666666667 0.5
2.5 0 0.5
2.5 -0.1666666667 0.5
2.5 -0.3333333333 0.5
2.5 0.3333333333 -0.3333333333
2.5 0.3333333333 -0.1666666667
2.5 0.3333333333 -6.938893904e-18
2.5 0.3333333333 0.1666666667
2.5 0.3333333333 0.3333333333
2.5 0.1666666667 -0.3333333333
2.5 0.1666666667 -0.1666666667
2.5 0.1666666667 -1.387778781e-17
2.5 0.1666666667 0.1666666667
2.5 0.1666666667 0.3333333333
2.5 0 -0.3333333333
2.5 0 -0.1666666667
2.5 0 0
2.5 0 0.1666666667
2.5 0 0.3333333333
2.5 -0.1666666667 -0.3333333333
2.5 -0.1666666667 -0.1666666667
2.5 -0.1666666667 0
2.5 -0.1666666667 0.1666666667
2.5 -0.1666666667 0.3333333333
2.5 -0.3333333333 -0.3333333333
2.5 -0.3333333333 -0.1666666667
2.5 -0.3333333333 0
2.5 -0.3333333333 0.1666666667
2.5 -0.3333333333 0.3333333333
0.2083333333 0.5 0.5
0.4166666667 0.5 0.5
0.625 0.5 0.5
0.8333333333 0.5 0.5
1.041666667 0.5 0.5
1.25 0.5 0.5
1.458333333 0.5 0.5
1.666666667 0.5 0.5
1.875 0.5 0.5
2.083333333 0.5 0.5
2.291666667 0.5 0.5
0.2083333333 -0.3333333333 0.5
0.4166666667 -0.3333333333 0.5
0.625 -0.3333333333 0.5
0.8333333333 -0.3333333333 0.5
1.041666667 -0.3333333333 0.5
1.25 -0.3333333333 0.5
1.458333333 -0.3333333333 0.5
1.666666667 -0.3333333333 0.5
1.875 -0.3333333333 0.5
2.083333333 -0.3333333333 0.5
2.291666667 -0.3333333333 0.5
0.2083333333 -0.1666666667 0.5
0.4166666667 -0.1666666667 0.5
0.625 -0.1666666667 0.5
0.8333333333 -0.1666666667 0.5
1.041666667 -0.1666666667 0.5
1.25 -0.1666666667 0.5
1.458333333 -0.1666666667 0.5
1.666666667 -0.1666666667 0.5
1.875 -0.1666666667 0.5
2.083333333 -0.1666666667 0.5
2.291666667 -0.1666666667 0.5
0.2083333333 0 0.5
0.4166666667 0 0.5
0.625 0 0.5
0.8333333333 0 0.5
1.041666667 0 0.5
1.25 0 0.5
1.458333333 0 0.5
1.666666667 0 0.5
1.875 0 0.5
2.083333333 0 0.5
2.291666667 0 0.5
0.2083333333 0.1666666667 0.5
0.4166666667 0.1666666667 0.5
0.625 0.1666666667 0.5
0.8333333333 0.1666666667 0.5
1.041666667 0.1666666667 0.5
1.25 0.1666666667 0.5
1.458333333 0.1666666667 0.5
1.666666667 0.1666666667 0.5
1.875 0.1666666667 0.5
2.083333333 0.1666666667 0.5
2.291666667 0.1666666667 0.5
0.2083333333 0.3333333333 0.5
0.4166666667 0.3333333333 0.5
0.625 0.3333333333 0.5
0.8333333333 0.3333333333 0.5
1.041666667 0.3333333333 0.5
1.25 0.3333333333 0.5
1.458333333 0.3333333333 0.5
1.666666667 0.3333333333 0.5
1.875 0.3333333333 0.5
2.083333333 0.3333333333 0.5
2.291666667 0.3333333333 0.5
0.2083333333 0.5 0.3333333333
0.4166666667 0.5 0.3333333333
0.625 0.5 0.3333333333
0.8333333333 0.5 0.3333333333
1.041666667 0.5 0.3333333333
1.25 0.5 0.3333333333
1.458333333 0.5 0.3333333333
1.666666667 0.5 0.3333333333
1.875 0.5 0.3333333333
2.083333333 0.5 0.3333333333
2.291666667 0.5 0.3333333333
0.2083333333 0.5 0.1666666667
0.4166666667 0.5 0.1666666667
0.625 0.5 0.1666666667
0.8333333333 0.5 0.1666666667
1.041666667 0.5 0.1666666667
1.25 0.5 0.1666666667
1.458333333 0.5 0.1666666667
1.666666667 0.5 0.1666666667
1.875 0.5 0.1666666667
2.083333333 0.5 0.1666666667
2.291666667 0.5 0.1666666667
0.2083333333 0.5 0
0.4166666667 0.5 0
0.625 0.5 0
0.8333333333 0.5 0
1.041666667 0.5 0
1.25 0.5 0
1.458333333 0.5 0
1.666666667 0.5 0
1.875 0.5 0
2.083333333 0.5 0
2.291666667 0.5 0
0.2083333333 0.5 -0.1666666667
0.4166666667 0.5 -0.1666666667
0.625 0.5 -0.1666666667
0.8333333333 0.5 -0.1666666667
1.041666667 0.5 -0.1666666667
1.25 0.5 -0.1666666667
1.458333333 0.5 -0.1666666667
1.666666667 0.5 -0.1666666667
1.875 0.5 -0.1666666667
2.083333333 0.5 -0.1666666667
2.291666667 0.5 -0.1666666667
0.2083333333 0.5 -0.3333333333
0.4166666667 0.5 -0.3333333333
0.625 0.5 -0.3333333333
0.8333333333 0.5 -0.3333333333
1.041666667 0.5 -0.3333333333
1.25 0.5 -0.3333333333
1.458333333 0.5 -0.3333333333
1.666666667 0.5 -0.3333333333
1.875 0.5 -0.3333333333
2.083333333 0.5 -0.3333333333
2.291666667 0.5 -0.3333333333
0.2083333333 -0.3333333333 -0.3333333333
0.4166666667 -0.3333333333 -0.3333333333
0.625 -0.3333333333 -0.3333333333
0.8333333333 -0.3333333333 -0.3333333333
1.041666667 -0.3333333333 -0.3333333333
1.25 -0.3333333333 -0.3333333333
1.458333333 -0.3333333333 -0.3333333333
1.666666667 -0.3333333333 -0.3333333333
1.875 -0.3333333333 -0.3333333333
2.083333333 -0.3333333333 -0.3333333333
2.291666667 -0.3333333333 -0.3333333333
0.2083333333 -0.1666666667 -0.3333333333
0.4166666667 -0.1666666667 -0.3333333333
0.625 -0.1666666667 -0.3333333333
0.8333333333 -0.1666666667 -0.3333333333
1.041666667 -0.1666666667 -0.3333333333
1.25 -0.1666666667 -0.3333333333
1.458333333 -0.1666666667 -0.3333333333
1.666666667 -0.1666666667 -0.3333333333
1.875 -0.1666666667 -0.3333333333
2.083333333 -0.1666666667 -0.3333333333
2.291666667 -0.1666666667 -0.3333333333
0.2083333333 0 -0.3333333333
0.4166666667 1.387778781e-17 -0.3333333333
0.625 -1.387778781e-17 -0.3333333333
0.8333333333 -1.387778781e-17 -0.3333333333
1.041666667 5.551115123e-17 -0.3333333333
1.25 1.387778781e-17 -0.3333333333
[...]
POINT_DATA 1225
SCALARS KDE_TALLY_TAG_0-0.01 double 1
LOOKUP_TABLE default
0.7360851461 
0.7773028596 
0.7679926088 
0.7130999038 
0.8203712277 
0.7570625186 
0.735997948 
0.7295373356 
0.7449930753 
0.7829229951 
0.7273243937 
0.7810002852 
0.7313714487 
0.7233840069 
0.7855115473 
0.7817490815 
0.7833160566 
0.7312386848 
0.7498528269 
0.7155779246 
0.6768385435 
0.7453238577 
0.7507403613 
0.7195650889 
0.7880438686 
0.7439680938 
0.7178161739 
0.7164536399 
0.7687883151 
0.7542415686 
0.8100067993 
0.8216049148 
0.7388520997 
0.7056410905 
0.6934647346 
0.8339647703 
0.7293512436 
0.7595440428 
0.6995231786 
0.7555735602 
0.7640495545 
0.755680253 
0.7363700554 
0.7119965856 
0.779544815 
0.7153073039 
0.7864304014 
0.6828072379 
0.7837797383 
0.1498970032 
0.7267744933 
0.7042796764 
0.6670408975 
0.6968685591 
0.6222558743 
0.6216036073 
0.5587587727 
0.5083364309 
0.4364235154 
0.4058794649 
0.2900890302 
0.1802988919 
0.1595193817 
0.1436403407 
0.1615019251 
0.1481558593 
0.1536741132 
0.3130857315 
0.3970405953 
0.4298165404 
0.573611415 
0.5101859845 
0.5569630729 
0.5789172489 
0.6189924307 
0.7661777847 
0.6982804495 
0.863737593 
0.699345524 
0.7167588852 
0.6740625545 
0.7345253859 
0.6418266583 
0.5959508398 
0.51525816 
0.4796884623 
0.5029840416 
0.3775842642 
0.3571499243 
0.7257544424 
0.744083157 
0.7070342297 
0.7013865223 
0.7025544293 
0.6163955715 
0.6100447073 
0.5000826414 
0.40642023 
0.4031462782 
0.3218968411 
0.8321386168 
0.7157868975 
0.6806130287 
0.6631158192 
0.6136341698 
0.5998991493 
0.5684377483 
0.5130303481 
0.4399659935 
0.3668181409 
0.3186160974 
0.7282124435 
0.777764969 
0.7361117592 
0.7039065069 
0.6516834863 
0.5909138472 
0.5920617359 
0.5258267912 
0.4133769417 
0.4057115736 
0.3160250144 
0.8025744844 
0.7340604304 
0.684303845 
0.6495699397 
0.6341907272 
0.5985350843 
0.6024448654 
0.5184350866 
0.4404268586 
0.3876689877 
0.3301544444 
0.1826314816 
0.2844930228 
0.434567383 
0.4473281104 
0.4826767435 
0.5532790487 
0.5470719695 
0.6213424357 
0.5836704169 
0.807290439 
0.7490554432 
0.7215022188 
0.1645182448 
0.155309772 
0.1439301954 
0.1290554923 
0.1430278072 
0.7240698027 
0.754472429 
0.6996820239 
0.696014554 
0.6354579167 
0.5778650872 
0.5306605332 
0.4633051526 
0.505219403 
0.3974619784 
0.3204200387 
0.7672996714 
0.6997949556 
0.7115784302 
0.7309188334 
0.6610572603 
0.5868496498 
0.5608246719 
0.5380127618 
0.512012198 
0.3782100692 
0.2993390277 
0.7583921023 
0.6800322833 
0.7729936613 
0.6818648672 
0.6659284422 
0.5991788871 
0.5676523772 
0.4876667019 
0.4633010041 
0.3671661516 
0.3148673406 
0.8172972803 
0.6688444334 
0.6718350599 
0.7175620051 
0.6375141464 
0.6006139056 
0.5822983585 
0.501691441 
0.4296424856 
0.3471531011 
0.3255476795 
0.7714311813 
0.7714706302 
0.7790106064 
0.7191038097 
0.6369296869 
0.5633188185 
0.5759909843 
0.4993026568 
0.4736484137 
0.415660137 
0.3019409987 
0.1682127763 
0.1764895105 
0.1665247984 
0.1363723438 
0.1387097937 
0.1443956641 
0.1654373322 
0.1467916488 
0.151616646 
0.1498802159 
0.1722779078 
0.1621914901 
0.1547649773 
0.1347882313 
0.1807478211 
0.134994903 
0.160200653 
0.146570986 
0.1520005933 
0.1595081335 
0.160799205 
0.1794511948 
0.1776705655 
0.1509259871 
0.1553336964 
0.1441493964 
0.1600251167 
0.1749275541 
0.1827126264 
0.1595344416 
0.1366862174 
0.1640919379 
0.1570359532 
0.1435272222 
0.1590287069 
0.1575620435 
0.7573745219 
0.7253332064 
0.65805032 
0.6396414662 
0.6013842716 
0.628588861 
0.5226794016 
0.5071447237 
0.4007530834 
0.3841957763 
0.3490220857 
0.7506617385 
0.7744149355 
0.6443965379 
0.6740487748 
0.6091631943 
0.591169269 
0.6014329178 
0.513512944 
0.4987047392 
0.4028503534 
0.3036416385 
0.7279800019 
0.7972873483 
0.7136785067 
0.6752893319 
0.649072759 
0.5632075306 
0.5263718597 
0.4994764633 
0.4934768795 
0.3822585894 
0.3094974792 
0.7390144647 
0.6909551668 
0.6735461047 
0.6133165826 
0.6205991293 
0.5870970243 
0.6042333676 
0.5450086402 
0.4138077563 
0.4031567693 
0.3334355553 
0.7475500862 
0.7126542576 
0.6683525807 
0.6818981934 
0.6100813545 
0.6571246933 
0.5847306568 
0.5073198293 
0.4864065117 
0.3585594599 
0.3481535347 
0.7899195937 
0.7190024244 
0.7036323432 
0.6952879265 
0.5985331551 
0.6023121677 
0.5844214601 
0.470019023 
0.4509623341 
0.3606666822 
0.3442713244 
0.6802632714 
0.6885517782 
0.7734654063 
0.6753744711 
0.6481843778 
0.6134767487 
0.5844309823 
0.4774115233 
0.4095137868 
0.4085014197 
0.295070864 
0.7961144826 
0.7383113101 
0.669041307 
0.6930206349 
0.6285592904 
0.5621630863 
0.5368398398 
0.4823994956 
0.4838108176 
0.4240019787 
0.3427058269 
0.7238573647 
0.718020629 
0.7569910479 
0.6731643154 
0.6500566222 
0.6106454175 
0.5275962442 
0.5090717359 
0.4808001185 
0.4296342846 
0.3188409111 
0.7493650031 
0.6960921942 
0.7036733545 
0.7027205337 
0.6760295128 
0.5751499667 
0.5384525947 
0.4912365301 
0.4788349625 
0.3584500911 
0.3064323822 
0.731224958 
0.7435449581 
0.7217306629 
0.6748659628 
0.7139651314 
0.5703539441 
0.5341095171 
0.4852020298 
0.411571417 
0.3247056478 
0.3282230473 
0.7863731535 
0.6927766069 
0.6576821854 
0.7146173319 
0.6677137223 
0.5985018158 
0.5028992121 
0.5162140141 
0.4475406106 
0.3828447705 
0.3771686703 
0.7240460164 
0.7367647282 
0.6888188991 
0.694960143 
0.6119189918 
0.625207294 
0.5488942796 
0.4876430834 
0.4507994975 
0.3944521747 
0.3426312627 
0.7277301667 
0.7392127843 
0.732752243 
0.649072776 
0.7204170697 
0.6162723524 
0.6247602019 
0.4696368018 
0.4452685094 
0.4276935087 
0.3055829631 
0.721354804 
0.697727633 
0.7118793527 
0.7299729874 
0.6386931809 
0.5627944702 
0.5469439864 
0.5193299865 
0.4096758484 
0.3618812936 
0.2867483638 
0.8195024203 
0.7188206697 
0.6656320505 
0.6222842634 
0.6536356639 
0.6215377015 
0.513937987 
0.5536932136 
0.4380918763 
0.3803941462 
0.3045165232 
0.6919733038 
0.6692493725 
0.7309032425 
0.7011481266 
0.6213111772 
0.5326732703 
0.5943228196 
0.5560213187 
0.44765536 
0.410619065 
0.3460696199 
0.7563743606 
0.7680662716 
0.6938949353 
0.642831911 
0.6404727775 
0.57112044 
0.5380634587 
0.5149471845 
0.4787453752 
0.3632838065 
0.3234229537 
0.6993310459 
0.7572631684 
0.6979341012 
0.6262611574 
0.6061490423 
0.6345071489 
0.5672242547 
0.5356044918 
0.4574741292 
0.3877971536 
0.2859791046 
0.8322190502 
0.7727524566 
0.6680112544 
0.6337322574 
0.6060670925 
0.6358781761 
0.5661688345 
0.5100019418 
0.4140435701 
0.3792016712 
0.3304268367 
0.7515021292 
0.7222202107 
0.733250666 
0.7190809066 
0.6319674132 
0.5947162037 
0.55033739 
0.5322900938 
0.4655492284 
0.3722258301 
0.2795093749 
0.7525188174 
0.6834969432 
0.7183177816 
0.6404355154 
0.64565211 
0.6284550346 
0.5498994274 
0.5180856709 
0.3944819417 
0.4331786603 
0.3086963851 
0.7403972021 
0.7334378874 
0.7251926163 
0.6543975687 
0.6355421301 
0.5968834238 
0.5374651892 
0.4725638949 
0.4740168683 
0.4141080938 
0.3145161428 
0.7407797662 
0.719851494 
0.6719703019 
0.6674002094 
0.6636832346 
0.57594104 
0.5770982428 
0.4818608538 
0.3783293115 
0.4065708737 
0.2957644067 
0.7143162583 
0.698669576 
0.6881664861 
0.679754893 
0.6360329858 
0.6328323241 
0.603191275 
0.4913887573 
0.4353147268 
0.3817491034 
0.3191310946 
0.7319146638 
0.6865638216 
0.6401186734 
0.7191756582 
0.6603046639 
0.6045205847 
0.5045889327 
0.4996684044 
0.4861372981 
0.4287287736 
0.3492249964 
0.7246810034 
0.7129023865 
0.7018918241 
0.6288066571 
0.6358251194 
0.5806744065 
0.5499532313 
0.4938790918 
0.4335291532 
0.3927779436 
0.33903507 
0.7661691832 
0.7669878504 
0.7340769082 
0.6701747729 
0.6744280526 
0.60602723 
0.5240836884 
0.4705992436 
0.4731571619 
0.4254655137 
0.2744933217 
0.7060551709 
0.7228493183 
0.6875574208 
0.6601059354 
0.7000914305 
0.5515374634 
0.5394561793 
0.4821902523 
0.4392550969 
0.4048159698 
0.3378080359 
0.7395492912 
0.7354255976 
0.7015808119 
0.737411585 
0.6735716595 
0.5808185945 
0.5126411329 
0.5170381158 
0.4677384063 
0.3911252613 
0.3242363876 
0.7298223487 
0.7159211273 
0.6657912454 
0.7074664126 
0.6376184219 
0.6632757765 
0.5398013276 
0.4901131379 
0.4172439937 
0.3960776165 
0.361417946 
0.7548371635 
0.6806038981 
0.7111164442 
0.6638006214 
0.596648583 
0.5835550591 
0.5964896847 
0.5019609502 
0.4110929384 
0.4067771721 
0.3503035414 
0.7318356092 
0.641780536 
0.7291809118 
0.6557114909 
0.6401829363 
0.5930244586 
0.5672245607 
0.5701505926 
0.4929324232 
0.443033505 
0.3243318658 
0.7281912281 
0.7703063243 
0.6889389247 
0.7028203554 
0.6711658059 
0.6022905417 
0.5854021595 
0.476333867 
0.4741321223 
0.3795353413 
0.2848981051 
0.7337344598 
0.7221859533 
0.7067890781 
0.5998352387 
0.6020863929 
0.5270502511 
0.5875906955 
0.5634676808 
0.4376642203 
0.402539289 
0.3226663602 
0.6677035593 
0.6160358808 
0.6741586184 
0.6514815679 
0.6298746245 
0.6525729546 
0.6111956162 
0.5492404904 
0.4833488525 
0.3458191575 
0.3284749903 
0.0009726136573 
0.03238629069 
0.02308271435 
0.002883286534 
0.005772801501 
0.004486629255 
0.00574085093 
0.0001407450519 
8.275233682e-05 
0 
0 
0.001598567291 
0 
0 
0 
0.0005424732924 
0 
0.0007691466209 
0.001009638728 
0 
0.001011160694 
0 
0.003919220366 
0.002345638907 
0.007513903057 
0.002525811489 
0.009738804472 
0.009564100122 
0.03315014704 
0.03421956675 
0.01856522927 
0.005639325056 
0.00718482753 
0.006982769379 
0.005026179265 
0 
0.0004268391124 
0 
0.0002296437758 
2.216375123e-05 
0.02355284732 
0.01998583956 
0.005232768394 
0.005124872035 
0.002159705 
0.003390709286 
0.004833700411 
0 
0.0009375052273 
0 
0.0001879382339 
0.02429702011 
0.01383201811 
0.009008667329 
0.006775249399 
0.002563883276 
0.002770054975 
0.001264947622 
0.001344703494 
0.001946050544 
0 
0.0009664532713 
0.03850999851 
0.01728109693 
0.007594091571 
0.005344248498 
0.007072870416 
0.003193585418 
0.0009190516455 
0.0001584860367 
0.001970733531 
0.003827047871 
0 
0.02826129951 
0.02220119773 
0.009093934565 
0.002188416977 
0.004806222352 
0.001281929563 
0.0009855518149 
3.228003903e-05 
0 
0 
0.004702901015 
0.0004932531073 
0.002003996334 
0.0007861055756 
0.0003337550326 
0 
0 
0.001391031488 
0.004880495328 
0.008669114711 
0.01455848664 
0.01449116927 
0.02190257357 
0.004600555223 
0 
0.003045343358 
0 
0.00666759314 
0.02133117174 
0.01233491499 
0.002226281312 
0.005357407916 
0.003043866689 
0.003675697853 
0.01251214881 
0.003962707108 
0.002406732439 
0 
0 
0.02882102832 
0.01102892624 
0.003745440384 
0.00796985105 
0.00194454149 
0.001168457028 
0.006058020505 
9.985173343e-05 
0 
2.636129073e-05 
0 
0.02207300657 
0.01602758752 
0.009707394548 
0.005786435453 
0.0008310574044 
0.0003354734333 
0 
0.001697156955 
0.0001399956938 
0.001139417275 
0.0003523512612 
0.02594807657 
0.01686252279 
0.01345168089 
0.007114760059 
0.001969316322 
0.003455274014 
0.0003173561743 
0.002244295858 
0.0005765100657 
0.002227831203 
0.003276505849 
0.02488309061 
0.01991238919 
0.01001076883 
0.006803391372 
0.004124041312 
0.001592024108 
0.001021049382 
0.0004670524748 
0.0001819865095 
0 
0 
0.001742626351 
0.004876329024 
0.001875159814 
0 
0 
0.001309044095 
0.0001179372566 
0.002446103344 
0.0005846295689 
0.0007137912465 
0 
0 
0.003310554292 
0 
0.002024222882 
0.0004000772079 
0.0001062617522 
0 
3.44831823e-06 
2.054256387e-05 
8.724320949e-05 
0 
0.000853647767 
0.004473701739 
0 
0.0001193113721 
0 
0.0004493882838 
6.707197581e-05 
0 
0 
0.0008005035033 
0 
0.0008056601009 
0.000273597046 
0 
0.02837786023 
0.0202136426 
0.01695703162 
0.004153924056 
0.007760840099 
0.002633841288 
0.003574805679 
0.0004430577139 
0.00542522718 
0 
0.001903995687 
0.01793228119 
0.009411758434 
0.008613110351 
0.004242906582 
0.005143557612 
0 
0.0001049395683 
0.001481425339 
0.000442822199 
0.0001146668568 
0 
0.01233628701 
0.01134732372 
0.009432562183 
0.004229177238 
0.002054170441 
0.003693522173 
0 
0.005465657674 
0.0001829197393 
0.004412096543 
0 
0.03234050396 
0.01387727399 
0.008660973089 
0.002171327076 
0.004536502195 
0.0083358598 
0.002317422817 
0.002309379025 
0.006202757058 
0.003302563279 
0.001351958719 
0.0287573305 
0.01539586488 
0.008784875057 
0.005178531621 
0.005593674182 
0.006568824924 
0.001901158823 
0.0008207477694 
0 
0.002478462702 
0.0004821088736 
0.03453862813 
0.01055500036 
0.01032394266 
0.007843161212 
0.006743817856 
0.006406450409 
0.003752818393 
1.156553683e-05 
0 
0.0005089222407 
0 
0.03189245521 
0.01789889266 
0.00310299187 
0.005531502628 
0.006032879584 
0.0008821475339 
0.002675349068 
0.001677645886 
0 
0.0001519863542 
0.0008841994474 
0.02572059282 
0.01281060097 
0.006505302771 
0.005371067023 
0.0007515837747 
0.00707094364 
0.00149602956 
6.373386832e-05 
0.0007013063358 
0.001070803549 
0.001884589803 
0.02587592415 
0.01884463184 
0.01042064605 
0.0008888452529 
0.00886261623 
0.001566573766 
0.001093543945 
0.001358778986 
0.0006698814444 
0 
0.0008404173663 
0.02339165093 
0.01480208863 
0.004274227913 
0.00686814154 
0.003846026269 
0.0009719677605 
0.001451318803 
0.002424295045 
1.997140166e-05 
0.0001621601911 
0.003193022247 
0.01917354449 
0.01085121347 
0.001344636809 
0.001458314237 
0.00178863202 
0.002976467261 
0.001319206989 
5.686103775e-06 
0.0002671042097 
0.002230353267 
0.001738409537 
0.02874204441 
0.0248828961 
0.01096830702 
0.01070304291 
0.003948354531 
0.0008590171935 
0.006028173839 
0 
0 
0.002595512623 
0 
0.03268521488 
0.02040213754 
0.005199738128 
0.005778588383 
0.003370678313 
0.00341814547 
0.0006227703321 
0.003534066824 
0 
0.003597992454 
0.00175268208 
0.02319558544 
0.008974627217 
0.01807028311 
0.006477459845 
0.00259261937 
0.001467000209 
0.004570354966 
0.002166511565 
1.903700672e-05 
0 
0 
0.02320202788 
0.007473798373 
0.008739504189 
0.007143346515 
0.007670655287 
0.006321873057 
0.004053632945 
0.0003188534442 
0.001070206485 
0 
0.001084183806 
0.02467090446 
0.01326959728 
0.006651628149 
0.002593723932 
0.001819093328 
0 
0.001325895878 
0.0008882853024 
0.0007939055087 
0 
0 
0.02570447867 
0.01606637391 
0.009079024381 
0.007612536426 
0.003342797948 
0.003983405937 
0.004389225472 
0 
0.001125654147 
0 
0 
0.01737536235 
0.01447362553 
0.01369260788 
0.0078070716 
0.001070252786 
0.002966459777 
0.0002205893413 
0 
0.001134626009 
0 
0.007417795079 
0.02457279033 
0.009915577703 
0.01085775309 
0.01113019186 
0.001421973286 
0.003125756009 
5.475827115e-05 
0.0006008557763 
0 
0.004258061278 
0 
0.02251838232 
0.01161083738 
0.008923691404 
0.006177199227 
0.003832353073 
0.00435237042 
0.002299719044 
0.003323622066 
0.00145183096 
0 
0 
0.03173886214 
0.01223367101 
0.002892227013 
0.00783074419 
0.001762381536 
0.0009144933718 
0 
0.001907469435 
2.311916766e-05 
0.0006150221797 
0 
0.03143558526 
0.01770825018 
0.005323047018 
0.006854810249 
0.004200510302 
9.651987825e-05 
0.001512319866 
9.711417364e-05 
0.0006134903699 
0.005100147853 
0 
0.02813633982 
0.01833412688 
0.01473489289 
0.007255840521 
0.003529935364 
0.002468324139 
0.002012779617 
0.002078143381 
0.003182323707 
6.032160088e-06 
0 
0.02295153051 
0.01940694529 
0.008704339119 
0.002241492103 
0.008804014194 
0 
0.0006774915436 
0.0003057106836 
0.0005945585765 
0.003173096929 
0.003177819449 
0.02329440728 
0.005625040776 
0.01307061591 
0.003918491177 
0.00516694984 
0.004457825915 
0.0006617000539 
0 
0 
0.00123271847 
0 
0.03351277447 
0.02383026101 
0.01813606956 
0.008676160823 
0.007077748847 
0.00286957328 
7.219435136e-05 
0.001048638261 
0.002592145864 
0.00117091814 
0.000355304273 
0.02847986414 
0.01621542522 
0.009454470521 
0.00651476226 
0.002239155745 
0.001834051256 
0.0003073868944 
0.000417344971 
0.0008271384686 
5.302395481e-05 
1.439920261e-05 
0.01927597141 
0.02119021226 
0.01184205783 
0.003107613273 
0.004018638949 
0.002979135283 
0.000911283667 
0.001861850723 
0.0007413129465 
0 
0.0003146773258 
0.02822493135 
0.02964819071 
0.002881336628 
0.005535513994 
0.00493207124 
0.004189859041 
0.001593442174 
0.001884812925 
0.001429140296 
0.002697981291 
0 
0.03113333616 
0.01574047839 
0.007456081201 
0.01030481557 
0.003547329529 
0.0008615960696 
0.00659994357 
0.0008228661372 
0.0005334391345 
0 
0.002164626425 
0.02258715088 
0.009400029124 
0.00838652291 
0.01108106896 
0.004804546622 
0.001314832524 
0.003728066437 
0.000495807441 
0.0003555377973 
0 
0.001695644494 
0.03000739161 
0.0100833255 
0.01584963095 
0.009252742574 
0.004164533123 
0.001002909583 
0.0008811155169 
0.0007521015364 
0.0001833367479 
0.001121683774 
0 
0.03980884663 
0.02072508315 
0.005593859525 
0.008454501197 
0.004157606097 
0.00485875178 
0.0008421681597 
0.0002762493906 
0.0001371552221 
0 
0.0002941937108 
0.02813663746 
0.009471232469 
0.006219752402 
0.00268988167 
0.001768851332 
0.0004248975646 
0.0004557118756 
0.0006681642402 
0.0007583782772 
0 
0 
0.02719858919 
0.0167192354 
0.009075861564 
0.006732969064 
0.001196800717 
0.003992927025 
0.0004802503874 
0.0007548341149 
0.003111597452 
0.002533502152 
0.001533088672 
0.02291416154 
0.009652888722 
0.005353900283 
0.002043629819 
0.000312403388 
0.000228022236 
0.004438509938 
0.0009714489752 
0 
0 
0.000587616891 
SCALARS KDE_TALLY_TAG_0.01-2 double 1
LOOKUP_TABLE default
0.5731395955 
0.6776384342 
0.6727354688 
0.680385206 
0.8065756724 
0.6365908291 
0.5975516433 
0.619594275 
0.5828197187 
0.6717963502 
0.6120097729 
0.6670713716 
0.597076724 
0.6063589702 
0.5500879435 
0.5348280833 
0.6341103673 
0.6014781352 
0.4968313974 
0.584626956 
0.4965704863 
0.6226854683 
0.7294965965 
0.7292726817 
0.5947830803 
0.6369584218 
0.6413815277 
0.6533688341 
0.5672479602 
0.5610082853 
0.594039062 
0.5349524122 
0.5025123677 
0.6049642925 
0.5431147344 
0.6412780527 
0.6089467351 
0.5724461212 
0.5418049098 
0.5992133562 
0.5570114745 
0.562079748 
0.6017228853 
0.5382081859 
0.5812786836 
0.6669421324 
0.6098394895 
0.5878000546 
0.6928534015 
0.3428117955 
0.7263837594 
0.6156219057 
0.6550195303 
0.6009853065 
0.5886110654 
0.5912044332 
0.4969415805 
0.4959553258 
0.4784978796 
0.4464330567 
0.4704830028 
0.4277724943 
0.494849294 
0.432115097 
0.4811364761 
0.4247655252 
0.4105320738 
0.4735368381 
0.4859594898 
0.4596305155 
0.5676979899 
0.5324881842 
0.4818449249 
0.5099635714 
0.6081886983 
0.5898535999 
0.6988616949 
0.5402196335 
0.5164260071 
0.5752829776 
0.5322790306 
0.5915954559 
0.47818208 
0.3983525281 
0.5909391133 
0.4872034829 
0.4803083261 
0.4259404799 
0.4520237414 
0.676601949 
0.6133456563 
0.6158952375 
0.5862179525 
0.5690860889 
0.4856799966 
0.4659259614 
0.4727038587 
0.5193659098 
0.4684614206 
0.3938954266 
0.6546036897 
0.5504961758 
0.5708799267 
0.6063250426 
0.4928387312 
0.5218437526 
0.4972353726 
0.5216575966 
0.4600011734 
0.399651487 
0.5092677358 
0.5963832622 
0.5988885863 
0.6158910521 
0.5934428354 
0.6413555395 
0.5416879009 
0.4589046329 
0.5282105498 
0.4607053441 
0.4704871833 
0.4084842626 
0.5935841056 
0.5988470325 
0.7255394414 
0.5487559045 
0.5073827447 
0.5893441289 
0.5761880757 
0.5600743125 
0.4561290114 
0.4803301199 
0.4958965373 
0.5178232134 
0.4828446888 
0.5496657643 
0.5093538086 
0.5406041405 
0.5200202134 
0.5013781386 
0.4991989158 
0.5512992606 
0.5177705345 
0.6043503481 
0.6073491269 
0.4404585027 
0.4582076405 
0.4253639602 
0.4554853103 
0.3688283098 
0.6561134008 
0.5785987362 
0.6246063038 
0.5284903251 
0.5433245593 
0.5861820415 
0.4394900909 
0.500456877 
0.528220743 
0.4830567144 
0.5138587672 
0.4952865622 
0.5373967049 
0.5950773627 
0.5991739495 
0.5345435293 
0.6112450507 
0.5432795786 
0.559875228 
0.5072998405 
0.5092097614 
0.4690830773 
0.594074282 
0.5797013638 
0.6491778575 
0.4800966943 
0.5788039282 
0.525873397 
0.4936068065 
0.4852592496 
0.4334287791 
0.5018910937 
0.4335853948 
0.6421513719 
0.6302561912 
0.666263883 
0.637997283 
0.6258870126 
0.5987775928 
0.6723880331 
0.5590364276 
0.4228153957 
0.4338934978 
0.3643278515 
0.66857341 
0.5275100234 
0.5356861337 
0.6117458611 
0.6179804026 
0.5598752304 