# vtk DataFile Version 3.0
MOAB 4.9.0
ASCII
DATASET UNSTRUCTURED_GRID
POINTS 1225 double
0 -0.5 0.5
0 0.5 0.5
0 -0.3333333333 0.5
0 -0.1666666667 0.5
0 0 0.5
0 0.1666666667 0.5
0 0.3333333333 0.5
0 0.5 -0.5
0 0.5 0.3333333333
0 0.5 0.1666666667
0 0.5 0
0 0.5 -0.1666666667
0 0.5 -0.3333333333
0 -0.5 -0.5
0 0.3333333333 -0.5
0 0.1666666667 -0.5
0 0 -0.5
0 -0.1666666667 -0.5
0 -0.3333333333 -0.5
0 -0.5 -0.3333333333
0 -0.5 -0.1666666667
0 -0.5 0
0 -0.5 0.1666666667
0 -0.5 0.3333333333
0 -0.3333333333 0.3333333333
0 -0.1666666667 0.3333333333
0 -6.938893904e-18 0.3333333333
0 0.1666666667 0.3333333333
0 0.3333333333 0.3333333333
0 -0.3333333333 0.1666666667
0 -0.1666666667 0.1666666667
0 -1.387778781e-17 0.1666666667
0 0.1666666667 0.1666666667
0 0.3333333333 0.1666666667
0 -0.3333333333 0
0 -0.1666666667 0
0 0 0
0 0.1666666667 0
0 0.3333333333 0
0 -0.3333333333 -0.1666666667
0 -0.1666666667 -0.1666666667
0 0 -0.1666666667
0 0.1666666667 -0.1666666667
0 0.3333333333 -0.1666666667
0 -0.3333333333 -0.3333333333
0 -0.1666666667 -0.3333333333
0 0 -0.3333333333
0 0.1666666667 -0.3333333333
0 0.3333333333 -0.3333333333
2.5 -0.5 -0.5
0.2083333333 -0.5 -0.5
0.4166666667 -0.5 -0.5
0.625 -0.5 -0.5
0.8333333333 -0.5 -0.5
1.041666667 -0.5 -0.5
1.25 -0.5 -0.5
1.458333333 -0.5 -0.5
1.666666667 -0.5 -0.5
1.875 -0.5 -0.5
2.083333333 -0.5 -0.5
2.291666667 -0.5 -0.5
2.5 -0.5 0.5
2.5 -0.5 0.3333333333
2.5 -0.5 0.1666666667
2.5 -0.5 0
2.5 -0.5 -0.1666666667
2.5 -0.5 -0.3333333333
2.291666667 -0.5 0.5
2.083333333 -0.5 0.5
1.875 -0.5 0.5
1.666666667 -0.5 0.5
1.458333333 -0.5 0.5
1.25 -0.5 0.5
1.041666667 -0.5 0.5
0.8333333333 -0.5 0.5
0.625 -0.5 0.5
0.4166666667 -0.5 0.5
0.2083333333 -0.5 0.5
0.2083333333 -0.5 -0.3333333333
0.4166666667 -0.5 -0.3333333333
0.625 -0.5 -0.3333333333
0.8333333333 -0.5 -0.3333333333
1.041666667 -0.5 -0.3333333333
1.25 -0.5 -0.3333333333
1.458333333 -0.5 -0.3333333333
1.666666667 -0.5 -0.3333333333
1.875 -0.5 -0.3333333333
2.083333333 -0.5 -0.3333333333
2.291666667 -0.5 -0.3333333333
0.2083333333 -0.5 -0.1666666667
0.4166666667 -0.5 -0.1666666667
0.625 -0.5 -0.1666666667
0.8333333333 -0.5 -0.1666666667
1.041666667 -0.5 -0.1666666667
1.25 -0.5 -0.1666666667
1.458333333 -0.5 -0.1666666667
1.666666667 -0.5 -0.1666666667
1.875 -0.5 -0.1666666667
2.083333333 -0.5 -0.1666666667
2.291666667 -0.5 -0.1666666667
0.2083333333 -0.5 0
0.4166666667 -0.5 0
0.625 -0.5 0
0.8333333333 -0.5 0
1.041666667 -0.5 0
1.25 -0.5 0
1.458333333 -0.5 0
1.666666667 -0.5 0
1.875 -0.5 0
2.083333333 -0.5 0
2.291666667 -0.5 0
0.2083333333 -0.5 0.1666666667
0.4166666667 -0.5 0.1666666667
0.625 -0.5 0.1666666667
0.8333333333 -0.5 0.1666666667
1.041666667 -0.5 0.1666666667
1.25 -0.5 0.1666666667
1.458333333 -0.5 0.1666666667
1.666666667 -0.5 0.1666666667
1.875 -0.5 0.1666666667
2.083333333 -0.5 0.1666666667
2.291666667 -0.5 0.1666666667
0.2083333333 -0.5 0.3333333333
0.4166666667 -0.5 0.3333333333
0.625 -0.5 0.3333333333
0.8333333333 -0.5 0.3333333333
1.041666667 -0.5 0.3333333333
1.25 -0.5 0.3333333333
1.458333333 -0.5 0.3333333333
1.666666667 -0.5 0.3333333333
1.875 -0.5 0.3333333333
2.083333333 -0.5 0.3333333333
2.291666667 -0.5 0.3333333333
2.5 0.5 -0.5
2.291666667 0.5 -0.5
2.083333333 0.5 -0.5
1.875 0.5 -0.5
1.666666667 0.5 -0.5
1.458333333 0.5 -0.5
1.25 0.5 -0.5
1.041666667 0.5 -0.5
0.8333333333 0.5 -0.5
0.625 0.5 -0.5
0.4166666667 0.5 -0.5
0.2083333333 0.5 -0.5
2.5 -0.3333333333 -0.5
2.5 -0.1666666667 -0.5
2.5 0 -0.5
2.5 0.1666666667 -0.5
2.5 0.3333333333 -0.5
0.2083333333 0.3333333333 -0.5
0.4166666667 0.3333333333 -0.5
0.625 0.3333333333 -0.5
0.8333333333 0.3333333333 -0.5
1.041666667 0.3333333333 -0.5
1.25 0.3333333333 -0.5
1.458333333 0.3333333333 -0.5
1.666666667 0.3333333333 -0.5
1.875 0.3333333333 -0.5
2.083333333 0.3333333333 -0.5
2.291666667 0.3333333333 -0.5
0.2083333333 0.1666666667 -0.5
0.4166666667 0.1666666667 -0.5
0.625 0.1666666667 -0.5
0.8333333333 0.1666666667 -0.5
1.041666667 0.1666666667 -0.5
1.25 0.1666666667 -0.5
1.458333333 0.1666666667 -0.5
1.666666667 0.1666666667 -0.5
1.875 0.1666666667 -0.5
2.083333333 0.1666666667 -0.5
2.291666667 0.1666666667 -0.5
0.2083333333 0 -0.5
0.4166666667 0 -0.5
0.625 0 -0.5
0.8333333333 0 -0.5
1.041666667 0 -0.5
1.25 0 -0.5
1.458333333 0 -0.5
1.666666667 0 -0.5
1.875 0 -0.5
2.083333333 0 -0.5
2.291666667 0 -0.5
0.2083333333 -0.1666666667 -0.5
0.4166666667 -0.1666666667 -0.5
0.625 -0.1666666667 -0.5
0.8333333333 -0.1666666667 -0.5
1.041666667 -0.1666666667 -0.5
1.25 -0.1666666667 -0.5
1.458333333 -0.1666666667 -0.5
1.666666667 -0.1666666667 -0.5
1.875 -0.1666666667 -0.5
2.083333333 -0.1666666667 -0.5
2.291666667 -0.1666666667 -0.5
0.2083333333 -0.3333333333 -0.5
0.4166666667 -0.3333333333 -0.5
0.625 -0.3333333333 -0.5
0.8333333333 -0.3333333333 -0.5
1.041666667 -0.3333333333 -0.5
1.25 -0.3333333333 -0.5
1.458333333 -0.3333333333 -0.5
1.666666667 -0.3333333333 -0.5
1.875 -0.3333333333 -0.5
2.083333333 -0.3333333333 -0.5
2.291666667 -0.3333333333 -0.5
2.5 0.5 0.5
2.5 0.5 -0.3333333333
2.5 0.5 -0.1666666667
2.5 0.5 0
2.5 0.5 0.1666666667
2.5 0.5 0.3333333333
2.5 0.3333333333 0.5
2.5 0.1666666667 0.5
2.5 0 0.5
2.5 -0.1666666667 0.5
2.5 -0.3333333333 0.5
2.5 0.3333333333 -0.3333333333
2.5 0.3333333333 -0.1666666667
2.5 0.3333333333 -6.938893904e-18
2.5 0.3333333333 0.1666666667
2.5 0.3333333333 0.3333333333
2.5 0.1666666667 -0.3333333333
2.5 0.1666666667 -0.1666666667
2.5 0.1666666667 -1.387778781e-17
2.5 0.1666666667 0.1666666667
2.5 0.1666666667 0.3333333333
2.5 0 -0.3333333333
2.5 0 -0.1666666667
2.5 0 0
2.5 0 0.1666666667
2.5 0 0.3333333333
2.5 -0.1666666667 -0.3333333333
2.5 -0.1666666667 -0.1666666667
2.5 -0.1666666667 0
2.5 -0.1666666667 0.1666666667
2.5 -0.1666666667 0.3333333333
2.5 -0.3333333333 -0.3333333333
2.5 -0.3333333333 -0.1666666667
2.5 -0.3333333333 0
2.5 -0.3333333333 0.1666666667
2.5 -0.3333333333 0.3333333333
0.2083333333 0.5 0.5
0.4166666667 0.5 0.5
0.625 0.5 0.5
0.8333333333 0.5 0.5
1.041666667 0.5 0.5
1.25 0.5 0.5
1.458333333 0.5 0.5
1.666666667 0.5 0.5
1.875 0.5 0.5
2.083333333 0.5 0.5
2.291666667 0.5 0.5
0.2083333333 -0.3333333333 0.5
0.4166666667 -0.3333333333 0.5
0.625 -0.3333333333 0.5
0.8333333333 -0.3333333333 0.5
1.041666667 -0.3333333333 0.5
1.25 -0.3333333333 0.5
1.458333333 -0.3333333333 0.5
1.666666667 -0.3333333333 0.5
1.875 -0.3333333333 0.5
2.083333333 -0.3333333333 0.5
2.291666667 -0.3333333333 0.5
0.2083333333 -0.1666666667 0.5
0.4166666667 -0.1666666667 0.5
0.625 -0.1666666667 0.5
0.8333333333 -0.1666666667 0.5
1.041666667 -0.1666666667 0.5
1.25 -0.1666666667 0.5
1.458333333 -0.1666666667 0.5
1.666666667 -0.1666666667 0.5
1.875 -0.1666666667 0.5
2.083333333 -0.1666666667 0.5
2.291666667 -0.1666666667 0.5
0.2083333333 0 0.5
0.4166666667 0 0.5
0.625 0 0.5
0.8333333333 0 0.5
1.041666667 0 0.5
1.25 0 0.5
1.458333333 0 0.5
1.666666667 0 0.5
1.875 0 0.5
2.083333333 0 0.5
2.291666667 0 0.5
0.2083333333 0.1666666667 0.5
0.4166666667 0.1666666667 0.5
0.625 0.1666666667 0.5
0.8333333333 0.1666666667 0.5
1.041666667 0.1666666667 0.5
1.25 0.1666666667 0.5
1.458333333 0.1666666667 0.5
1.666666667 0.1666666667 0.5
1.875 0.1666666667 0.5
2.083333333 0.1666666667 0.5
2.291666667 0.1666666667 0.5
0.2083333333 0.3333333333 0.5
0.4166666667 0.3333333333 0.5
0.625 0.3333333333 0.5
0.8333333333 0.3333333333 0.5
1.041666667 0.3333333333 0.5
1.25 0.3333333333 0.5
1.458333333 0.3333333333 0.5
1.666666667 0.3333333333 0.5
1.875 0.3333333333 0.5
2.083333333 0.3333333333 0.5
2.291666667 0.3333333333 0.5
0.2083333333 0.5 0.3333333333
0.4166666667 0.5 0.3333333333
0.625 0.5 0.3333333333
0.8333333333 0.5 0.3333333333
1.041666667 0.5 0.3333333333
1.25 0.5 0.3333333333
1.458333333 0.5 0.3333333333
1.666666667 0.5 0.3333333333
1.875 0.5 0.3333333333
2.083333333 0.5 0.3333333333
2.291666667 0.5 0.3333333333
0.2083333333 0.5 0.1666666667
0.4166666667 0.5 0.1666666667
0.625 0.5 0.1666666667
0.8333333333 0.5 0.1666666667
1.041666667 0.5 0.1666666667
1.25 0.5 0.1666666667
1.458333333 0.5 0.1666666667
1.666666667 0.5 0.1666666667
1.875 0.5 0.1666666667
2.083333333 0.5 0.1666666667
2.291666667 0.5 0.1666666667
0.2083333333 0.5 0
0.4166666667 0.5 0
0.625 0.5 0
0.8333333333 0.5 0
1.041666667 0.5 0
1.25 0.5 0
1.458333333 0.5 0
1.666666667 0.5 0
1.875 0.5 0
2.083333333 0.5 0
2.291666667 0.5 0
0.2083333333 0.5 -0.1666666667
0.4166666667 0.5 -0.1666666667
0.625 0.5 -0.1666666667
0.8333333333 0.5 -0.1666666667
1.041666667 0.5 -0.1666666667
1.25 0.5 -0.1666666667
1.458333333 0.5 -0.1666666667
1.666666667 0.5 -0.1666666667
1.875 0.5 -0.1666666667
2.083333333 0.5 -0.1666666667
2.291666667 0.5 -0.1666666667
0.2083333333 0.5 -0.3333333333
0.4166666667 0.5 -0.3333333333
0.625 0.5 -0.3333333333
0.8333333333 0.5 -0.3333333333
1.041666667 0.5 -0.3333333333
1.25 0.5 -0.3333333333
1.458333333 0.5 -0.3333333333
1.666666667 0.5 -0.3333333333
1.875 0.5 -0.3333333333
2.083333333 0.5 -0.3333333333
2.291666667 0.5 -0.3333333333
0.2083333333 -0.3333333333 -0.3333333333
0.4166666667 -0.3333333333 -0.3333333333
0.625 -0.3333333333 -0.3333333333
0.8333333333 -0.3333333333 -0.3333333333
1.041666667 -0.3333333333 -0.3333333333
1.25 -0.3333333333 -0.3333333333
1.458333333 -0.3333333333 -0.3333333333
1.666666667 -0.3333333333 -0.3333333333
1.875 -0.3333333333 -0.3333333333
2.083333333 -0.3333333333 -0.3333333333
2.291666667 -0.3333333333 -0.3333333333
0.2083333333 -0.1666666667 -0.3333333333
0.4166666667 -0.1666666667 -0.3333333333
0.625 -0.1666666667 -0.3333333333
0.8333333333 -0.1666666667 -0.3333333333
1.041666667 -0.1666666667 -0.3333333333
1.25 -0.1666666667 -0.3333333333
1.458333333 -0.1666666667 -0.3333333333
1.666666667 -0.1666666667 -0.3333333333
1.875 -0.1666666667 -0.3333333333
2.083333333 -0.1666666667 -0.3333333333
2.291666667 -0.1666666667 -0.3333333333
0.2083333333 0 -0.3333333333
0.4166666667 1.387778781e-17 -0.3333333333
0.625 -1.387778781e-17 -0.3333333333
0.8333333333 -1.387778781e-17 -0.3333333333
1.041666667 5.551115123e-17 -0.3333333333
1.25 1.387778781e-17 -0.3333333333
[...]
POINT_DATA 1225
SCALARS KDE_TALLY_TAG_0-0.01 double 1
LOOKUP_TABLE default
0.7673179593 
0.7665198282 
0.7769874989 
0.7108810234 
0.731529456 
0.7529474963 
0.7262660958 
0.7494132142 
0.7369463453 
0.7192787919 
0.7623625279 
0.7763459825 
0.7768942008 
0.7662586737 
0.7514919865 
0.7456071323 
0.735037143 
0.7575218667 
0.7637797635 
0.767525119 
0.7223843857 
0.7356742381 
0.765365975 
0.7541963795 
0.7744922477 
0.7489169357 
0.7576327164 
0.7352750321 
0.7378292616 
0.764683332 
0.7570251979 
0.7706000631 
0.7446829078 
0.7378437607 
0.7289558051 
0.7557363431 
0.7221642751 
0.7410804119 
0.7589007975 
0.7238213069 
0.7483591974 
0.74296404 
0.7451694481 
0.7628220628 
0.7528747091 
0.7717494665 
0.758724091 
0.7511488062 
0.7602670482 
0.1407615636 
0.7280222658 
0.7388291665 
0.7030120129 
0.6750913409 
0.6526683185 
0.6069571911 
0.5590642148 
0.4954251909 
0.4663094211 
0.372567118 
0.3198425953 
0.1582208472 
0.1533249874 
0.1530823824 
0.1549201107 
0.1527413532 
0.1534583617 
0.3262031268 
0.4060265401 
0.4573821289 
0.5171018863 
0.5427002952 
0.6110730354 
0.6281786278 
0.6544084973 
0.7003492441 
0.7265016827 
0.7817060215 
0.7059699273 
0.7179198284 
0.6755170225 
0.6816340743 
0.6716960722 
0.6004532322 
0.5622123742 
0.4927720826 
0.4655443848 
0.3793729987 
0.316661834 
0.7216284889 
0.7294009533 
0.6976950913 
0.668441094 
0.6379583602 
0.5887760216 
0.5813136343 
0.5212121434 
0.4579710152 
0.3826911094 
0.3106976434 
0.7663842219 
0.7525025864 
0.6974856106 
0.6580429683 
0.6327628708 
0.6009879775 
0.5653594666 
0.5008459062 
0.458809838 
0.3971148444 
0.3228824413 
0.7160506884 
0.7202739103 
0.7076171384 
0.668080902 
0.6282969423 
0.5739187604 
0.5697756442 
0.5257734982 
0.4390940284 
0.3889535881 
0.3082388206 
0.7486620421 
0.7113329746 
0.7231777377 
0.658925038 
0.6481407491 
0.5985022452 
0.553143686 
0.4948104789 
0.4336780241 
0.4120351228 
0.3362452782 
0.1686099534 
0.3008464666 
0.3866317669 
0.4533068606 
0.5094852471 
0.5557037112 
0.58626812 
0.6568169748 
0.6553829945 
0.7188341171 
0.7385597903 
0.7378314405 
0.1528429054 
0.1512485423 
0.1583048452 
0.1425586838 
0.1488657159 
0.744280515 
0.7283786487 
0.7219098024 
0.6566913255 
0.6329368419 
0.5951790448 
0.5586159818 
0.5006910874 
0.4541405065 
0.3706778336 
0.3040024839 
0.7599166108 
0.7169143245 
0.6982756955 
0.6932325208 
0.6427176759 
0.6188136441 
0.5682478671 
0.5157028474 
0.4850495642 
0.3805441058 
0.3168820179 
0.7461301549 
0.7132617518 
0.7125978965 
0.7101958332 
0.6545697783 
0.619164155 
0.5844899293 
0.499892256 
0.4529871009 
0.3685123106 
0.3195400047 
0.7720206578 
0.7177836999 
0.7052964848 
0.7052534625 
0.6413802911 
0.6006828198 
0.5619061438 
0.4987800497 
0.443240413 
0.3786857808 
0.3025351426 
0.7515535742 
0.7244841963 
0.6944685676 
0.6679680409 
0.6485187691 
0.5755856574 
0.5845546723 
0.5056485179 
0.441822702 
0.3850249893 
0.3104857806 
0.1536534214 
0.1673732818 
0.1611979497 
0.1565244183 
0.1573890279 
0.1424395917 
0.1600803178 
0.1589089931 
0.1454095832 
0.1450131429 
0.167726412 
0.1589849389 
0.1566250175 
0.1669503512 
0.1655272462 
0.1538058039 
0.1436796489 
0.1655854903 
0.1475981449 
0.1507190155 
0.1569485372 
0.1476144001 
0.1525622245 
0.1663165498 
0.1639011518 
0.1426266801 
0.1606831097 
0.1690127702 
0.1626920979 
0.143693696 
0.141514681 
0.1613796758 
0.1531004181 
0.1676870843 
0.147513393 
0.1620454937 
0.767862198 
0.7322833825 
0.699365324 
0.6515007384 
0.63733012 
0.6262441773 
0.5487185938 
0.4997082104 
0.4412122416 
0.3887365735 
0.3326819653 
0.7262451612 
0.7380807973 
0.7020811006 
0.6621139986 
0.6242375909 
0.5941105397 
0.5795240423 
0.5170479899 
0.4626959538 
0.3996049202 
0.3179165753 
0.724587482 
0.7394081062 
0.6895519523 
0.6808909088 
0.6479355723 
0.6020373083 
0.5626521193 
0.5086157122 
0.4821572601 
0.4165632971 
0.3197416315 
0.7475124074 
0.6907279615 
0.6910160504 
0.654884656 
0.638366427 
0.6024289817 
0.5679975818 
0.5367240223 
0.4525481629 
0.3835935558 
0.3287435104 
0.7326576346 
0.6939881408 
0.7019480376 
0.665622267 
0.6308061489 
0.6114633523 
0.5602259877 
0.5016927187 
0.4611857383 
0.3800778423 
0.3032631026 
0.7484893438 
0.7120973613 
0.7045548964 
0.6709097775 
0.6323981947 
0.6160231189 
0.5706879674 
0.5092120366 
0.4639532553 
0.3801648097 
0.3103629706 
0.7119614656 
0.7086153767 
0.6862687403 
0.6645533793 
0.6534619679 
0.6036129195 
0.5772433593 
0.5008727809 
0.4408580263 
0.3719555982 
0.3130282979 
0.7264199827 
0.7089397942 
0.7000657293 
0.7056839435 
0.6557644508 
0.614290592 
0.5591100266 
0.4857457871 
0.4397732676 
0.3916331536 
0.3252018798 
0.7361594249 
0.7180447924 
0.7119495726 
0.652740048 
0.6236198451 
0.5950692477 
0.5483375617 
0.49204939 
0.4489750104 
0.4026554318 
0.3194821987 
0.7557280156 
0.7193485338 
0.7017404811 
0.6652828422 
0.6371136836 
0.592219702 
0.5536838783 
0.4818409608 
0.4637444307 
0.384944725 
0.3300912327 
0.7505461314 
0.7154407468 
0.7302642507 
0.6909507105 
0.6516150418 
0.6008690493 
0.5486420487 
0.4925789512 
0.4367808207 
0.3685987112 
0.3289511055 
0.7438036216 
0.7184699313 
0.7038331001 
0.6920189584 
0.6407177736 
0.6003064498 
0.5399804483 
0.5070805986 
0.4463373937 
0.3948402458 
0.3117210987 
0.7616207981 
0.713608627 
0.6901292108 
0.6698072529 
0.6347440391 
0.6007472651 
0.5579181921 
0.5086157133 
0.4522748971 
0.3840763916 
0.3024815116 
0.7347475228 
0.7074754911 
0.6993016681 
0.6716950712 
0.6552208101 
0.5904236001 
0.5772972828 
0.5064962312 
0.4374978559 
0.3943336573 
0.3227503313 
0.7314829376 
0.7156445295 
0.7099864592 
0.6981081075 
0.6286339005 
0.5774404631 
0.5772446687 
0.5269483103 
0.4503841854 
0.3791471562 
0.2938170033 
0.7312461431 
0.7359141054 
0.7011292475 
0.6658699279 
0.631940969 
0.6284379728 
0.5502259304 
0.5095394165 
0.4672538027 
0.3813900826 
0.3142585374 
0.7140592045 
0.7148486654 
0.7121183162 
0.6799013486 
0.6312601709 
0.603362058 
0.5660461562 
0.5329255891 
0.4457292647 
0.386690925 
0.3435766591 
0.7563572611 
0.7365852393 
0.6910983127 
0.6638323449 
0.6399931738 
0.6031732644 
0.5858231235 
0.5196830746 
0.4581106719 
0.3686453215 
0.3279435016 
0.7201990566 
0.724080891 
0.7095714925 
0.6700273931 
0.598862904 
0.6254783905 
0.6051738767 
0.5210752974 
0.4629936075 
0.392556124 
0.3097508379 
0.7725155261 
0.7258114347 
0.7085836104 
0.6578915556 
0.6119620581 
0.6005098224 
0.5775682371 
0.534574569 
0.4515761256 
0.3944999912 
0.3101476477 
0.7423616911 
0.7023521169 
0.7018199867 
0.6582280495 
0.6273344099 
0.5967840967 
0.5644430511 
0.5013608727 
0.4469389147 
0.3646954033 
0.314194386 
0.7403701328 
0.738859301 
0.6939945849 
0.6791410567 
0.6375103503 
0.5983438831 
0.571170281 
0.5075243968 
0.4439188594 
0.39974179 
0.3238447634 
0.7323209808 
0.7287503036 
0.7029027218 
0.6666487435 
0.6568418047 
0.6139690451 
0.5627780839 
0.4990446956 
0.43758666 
0.3996423548 
0.3056872472 
0.7521012339 
0.7107925734 
0.6921462831 
0.6535523554 
0.6359197564 
0.5979467238 
0.5679478975 
0.5113494664 
0.4437181439 
0.4121797068 
0.3060250516 
0.7536023474 
0.7245903938 
0.7000048237 
0.6918324277 
0.6636433649 
0.606354932 
0.5762452559 
0.5168478387 
0.4723483897 
0.3616525228 
0.3144156806 
0.734997209 
0.7164454792 
0.6992846757 
0.67292139 
0.6362961359 
0.6048959702 
0.5446956561 
0.5026951286 
0.4726810193 
0.3849782531 
0.3196414978 
0.717515348 
0.740804453 
0.6932930285 
0.6444142562 
0.6571271911 
0.6209049014 
0.5754579788 
0.5040607148 
0.444958851 
0.4041839522 
0.3245812615 
0.7331162845 
0.7203939145 
0.7148729744 
0.6927070349 
0.648535944 
0.6100422394 
0.56277163 
0.5105806409 
0.4450009374 
0.3964422681 
0.3068708875 
0.744242323 
0.7502173096 
0.7261700672 
0.658336631 
0.6576500044 
0.6115766089 
0.5364107099 
0.5070230643 
0.4640444315 
0.3984029086 
0.3185848979 
0.7464086287 
0.7324627018 
0.6982077416 
0.7020538866 
0.6617676445 
0.6054762634 
0.5529909934 
0.5192171574 
0.4668470452 
0.3801265028 
0.3225479562 
0.7211582248 
0.699397293 
0.7035335456 
0.6712624076 
0.6596748221 
0.6213881727 
0.5658666208 
0.495975458 
0.447657164 
0.3852833312 
0.3121147486 
0.7475439781 
0.713009813 
0.7030125223 
0.6857433073 
0.6293145221 
0.601319722 
0.5537252658 
0.5130784589 
0.4515299284 
0.4048435578 
0.3198326524 
0.7504269775 
0.7302829218 
0.7316203401 
0.6732619847 
0.6347831329 
0.6081731933 
0.5673999518 
0.5196710695 
0.4494610878 
0.3988488977 
0.3181251616 
0.7602035588 
0.731892828 
0.6880187926 
0.6807765372 
0.6579726566 
0.600784375 
0.5578200087 
0.5125010606 
0.4463382129 
0.3870850061 
0.3074561545 
0.7435078139 
0.7334454101 
0.7023177783 
0.6582310144 
0.6566210276 
0.5931686653 
0.5645854823 
0.5104851023 
0.4534267541 
0.3937049781 
0.3255749564 
0.6986720084 
0.7220219236 
0.6981026605 
0.6934155743 
0.6328135155 
0.6042300052 
0.5616046599 
0.5157888894 
0.4396246257 
0.3712343164 
0.3135869967 
0.0003981579988 
0.02814079324 
0.02244510835 
0.01059061851 
0.004752467225 
0.004562830946 
0.00382750635 
0.001279061688 
0.001885328174 
0.001598912786 
0.0006867961238 
0.0004701455617 
0.0006345605494 
0.0004813047171 
0.00026645279 
0.002070438371 
0.0005015989355 
0.0005983262319 
0.001009020087 
0.000449204175 
0.002138221683 
0.001620345108 
0.0009085348784 
0.003651211036 
0.003532312181 
0.00421486482 
0.009271823743 
0.01368199598 
0.0270257554 
0.02847595191 
0.01243791279 
0.007276431123 
0.006380607504 
0.00341089552 
0.003348243651 
0.001091200701 
0.0009596762161 
0.0003149160599 
0.0003839637529 
0.0001975451974 
0.02109278349 
0.01608962662 
0.009395236172 
0.00600006288 
0.004213460779 
0.001631286253 
0.00169781838 
0.001419909645 
8.761833831e-05 
3.481760422e-05 
0.0006355458446 
0.02453950721 
0.01406128005 
0.009269131464 
0.005509882695 
0.003347520495 
0.003020496389 
0.001543371024 
0.001014049119 
0.0009054505756 
1.794461135e-05 
0.0001818162532 
0.02720660039 
0.01555462615 
0.01010605923 
0.004315226457 
0.002549516603 
0.003397081907 
0.001960355572 
0.001925057005 
0.001434715589 
0.0008499355198 
0.001002493885 
0.02708108117 
0.01425764817 
0.00605118694 
0.00615925174 
0.004184108023 
0.001723856482 
0.003795785363 
0.00142696469 
0.0002850310881 
0.0009491016225 
0.0009896960872 
0.0002284803338 
0.001201276208 
0.001265525343 
0.001192978495 
0.0007234343867 
0.003552564664 
0.0004911845529 
0.004171347506 
0.007097248582 
0.01303138833 
0.0136457137 
0.02667241104 
0.000150193539 
0.0001192301222 
0.0008746118254 
0.0003888581828 
0.0008592168472 
0.03051613655 
0.01305914762 
0.007512374557 
0.005296050612 
0.001749870546 
0.003300626629 
0.001815998652 
0.001926078289 
0.000433880256 
0.0005113738276 
0.001040390583 
0.02677281582 
0.01289025988 
0.01004677613 
0.004745922298 
0.004314821766 
0.001860574656 
0.001452188732 
0.001659648316 
0.0003908108362 
0.0001234851371 
0 
0.02279996852 
0.01777227665 
0.008826217384 
0.004909005844 
0.003992623002 
0.002472911866 
0.001738137878 
0.00121492125 
0.0006269233494 
0.000401759 
0.0004921567452 
0.02707267094 
0.01322766612 
0.01081734513 
0.007262180362 
0.005781513348 
0.003547410208 
0.002247948113 
0.001702050353 
0.0007394400996 
0.0007998302442 
0.0008506023879 
0.02581452072 
0.01392924812 
0.00932507767 
0.00506098899 
0.002587069155 
0.001315808202 
0.002360206904 
0.0003522923058 
0.001268438807 
0.0006195722816 
0.0001568989531 
0.0007448183882 
0.00150216783 
0.0006547096601 
0.0006328672566 
0.0005364030159 
0.0003660525626 
0.0001326707069 
0.0005472610523 
4.034141166e-05 
0.00052404337 
0.0001870863208 
0.0005412286632 
0.00127628762 
5.275994191e-05 
0.000615175884 
4.697784942e-05 
0.000452730648 
0.000938778064 
0.0002475468082 
1.141526172e-05 
0.0002238008698 
0.0002488235802 
0.0003290147051 
0.001192933593 
4.499895045e-05 
0.001156167757 
3.305701553e-05 
0.0003906395341 
0.001298889877 
0.0001515714419 
8.876718746e-05 
0.0002885120413 
6.222175514e-06 
0.0004887049447 
0.0002551703784 
3.936074328e-05 
0.02300874079 
0.01590586989 
0.01191905126 
0.007414487065 
0.003593792545 
0.003521662491 
0.001735564106 
0.002125247686 
0.001926285962 
0.0008684411277 
0.0008952468737 
0.02584501777 
0.01469430491 
0.00797273957 
0.006423300496 
0.003012488458 
0.004170189243 
0.00112896878 
0.001906182541 
0.001102194647 
0.0001778305699 
0.0002353522227 
0.02032249949 
0.01424423719 
0.00939930029 
0.006849548923 
0.005583855738 
0.001496658701 
0.001242832326 
0.002828286457 
0.002061671511 
0.001435050033 
0.0003739533074 
0.02417462237 
0.01421821728 
0.009063502584 
0.005035802505 
0.003021065493 
0.003147418574 
0.00110356609 
0.002722277076 
0.001929713693 
0.001040177742 
0.001063363487 
0.02715854853 
0.01383423144 
0.008300279208 
0.008196470412 
0.006527808761 
0.002624635004 
0.001682419221 
0.001551706417 
0.001172533284 
0.0001977573033 
0.001345719603 
0.03134870931 
0.01696145215 
0.009632097713 
0.006779113628 
0.005305567468 
0.004127311859 
0.003529058296 
0.001279383632 
0.0002929854084 
0.0005687346846 
0.000932248098 
0.03121441128 
0.0190480773 
0.006897112669 
0.005861843444 
0.006860098937 
0.002428036106 
0.002680690826 
0.001139112648 
0.0002222052901 
0.0005302432945 
0.0006065239428 
0.02626186898 
0.0140581198 
0.0101169553 
0.006016797139 
0.005457931428 
0.002546022432 
0.001473194127 
0.001380979174 
0.001416654344 
0.00134656044 
0.001036912052 
0.02447566458 
0.01481067411 
0.009878618399 
0.007350718831 
0.005541082556 
0.00362710727 
0.003252216808 
0.002047695105 
0.001336254926 
0.0005837564186 
0.0005024105639 
0.02843262367 
0.01390764902 
0.007942787581 
0.008902834076 
0.004253635593 
0.002376149439 
0.003580744241 
0.001487118441 
0.0007290559252 
0.001333927749 
0.001334364188 
0.02916624019 
0.01349324153 
0.007521753616 
0.005743828245 
0.003216608024 
0.001558012344 
0.0009518356449 
0.001685288526 
0.001284824822 
0.000717829725 
0.0001539813549 
0.02780227804 
0.01826820882 
0.01089536371 
0.006211649563 
0.004318961161 
0.002683614917 
0.001310931669 
0.0001376630497 
0.001260101589 
0.001530162662 
0.0008991215211 
0.02917947345 
0.0146434501 
0.01011447627 
0.003401399111 
0.004757536202 
0.00419742237 
0.001513536645 
0.002886458991 
0.0006698365154 
0.001388437213 
0.001334813561 
0.02326651669 
0.01431612799 
0.007634617947 
0.00703485211 
0.003945371807 
0.002996225797 
0.003254832905 
0.001024415656 
0.001287429917 
0.002378674778 
0.000656589077 
0.02985342756 
0.01460495799 
0.00872607676 
0.003605808555 
0.005503018276 
0.003485913305 
0.001421877917 
0.0003538041398 
0.0008437589017 
0.0001233325692 
0.00154679046 
0.02756744029 
0.01099828499 
0.004935432432 
0.003508175096 
0.003055532936 
0.001093901895 
0.003293334018 
0.002317523016 
0.0009950037733 
0.0003704799742 
0.0004385457793 
0.02877731332 
0.01837918779 
0.007575041203 
0.005594551093 
0.003519463799 
0.002814279992 
0.003086626526 
0.001500212851 
0.001880319573 
0.00140489883 
0.001299218488 
0.02496267928 
0.01672458155 
0.008227849338 
0.005140257445 
0.004198675123 
0.00192972329 
0.00252232919 
0.0007252320036 
0.001716033682 
0.001465558448 
0.00167370398 
0.02598274582 
0.01167526236 
0.0121324846 
0.006607860711 
0.00400962115 
0.002011215694 
0.001014611875 
0.0007506161697 
0.0009603574718 
0.001328728139 
0.0003042753581 
0.02982795187 
0.01252584225 
0.006604142594 
0.005518907943 
0.003579186785 
0.004532198952 
0.003233443515 
0.001346432838 
0.001676216161 
0.0008385330888 
0.0003346129091 
0.02721859455 
0.01167575188 
0.00476521283 
0.004719394197 
0.003481854374 
0.002090814745 
0.001525565955 
0.002318305948 
0.0008668228598 
0.0009484152011 
0.0005550422559 
0.02999653401 
0.01952085795 
0.01110345984 
0.006832313666 
0.002819292254 
0.002382478061 
0.001982979706 
0.001168554625 
0.001167134535 
0.002434045942 
0.0003440421654 
0.03588358618 
0.01645165735 
0.009527850112 
0.004845101178 
0.001964712192 
0.00300779971 
0.002428956655 
0.003057253361 
0.001582507105 
0.001111462357 
0.0006264481202 
0.02651424484 
0.01756027379 
0.009791821328 
0.005981536316 
0.005962389207 
0.001694295701 
0.001322646873 
0.0008316986991 
0.001573718157 
0.001501871521 
0.0008004033153 
0.02734244984 
0.01322843363 
0.009636085577 
0.006788634152 
0.005040010458 
0.001105671155 
0.001594880767 
0.001189403293 
0.0007438014547 
0.001288249589 
0.0004337177151 
0.0269300141 
0.01326505942 
0.01017202362 
0.006396987498 
0.004636704169 
0.003467309026 
0.00191943758 
0.001268977581 
0.002094198553 
0.001676838379 
0.001758121039 
0.03216603414 
0.01313624781 
0.006961004914 
0.006153768716 
0.003589933849 
0.002104718273 
0.0023889114 
0.002311445249 
0.001015037312 
0.001223311018 
0.0004710171085 
0.02531645776 
0.01346568722 
0.008463559208 
0.004218719845 
0.003706870349 
0.002577875693 
0.001970140341 
0.001810598223 
0.0009637647127 
0.0001183510804 
0.0002980109953 
0.02748312089 
0.01905962014 
0.007096262074 
0.005310441044 
0.003860603553 
0.002967237274 
0.001651661718 
0.001446472219 
0.001505069969 
0.001434068305 
0.002610931049 
0.02395072502 
0.01618419983 
0.009800671385 
0.01065553325 
0.003957969933 
0.003263560414 
0.001254233188 
0.00109957545 
0.000893685205 
0.0006455824334 
0.0002236519523 
0.02641925673 
0.01203003951 
0.008329562141 
0.004558019294 
0.003636949368 
0.002783664492 
0.001602582245 
0.0008096941158 
0.0001523935148 
0.0005967305464 
0.0001740064871 
0.02307457646 
0.01395879882 
0.007808894475 
0.005014419598 
0.002683515104 
0.003459120179 
0.003434510413 
0.0006524738222 
0.001543425607 
0.0007414874999 
2.862720603e-05 
0.02633107897 
0.01412660165 
0.007820621211 
0.004113604632 
0.003144885481 
0.002742962414 
0.001043053155 
0.001141235284 
0.001261397053 
0.000322525478 
0.0002291224563 
0.02992231781 
0.01109425652 
0.007663460253 
0.005014582149 
0.003140163455 
0.00345476056 
0.001055023172 
0.001253989117 
0.001953647828 
0.0007197174105 
0.0002081575542 
0.02289875832 
0.01590419399 
0.007751568938 
0.005113735192 
0.00317301945 
0.002618711094 
0.001670603854 
0.001848701799 
0.0005836373285 
0.001032875927 
0.0001037334479 
0.02412174524 
0.01542790412 
0.008740642854 
0.003292005431 
0.002675789338 
0.00236097993 
0.001664599293 
0.0003624077081 
0.0001117057724 
0.0007189744928 
0.0002013524852 
SCALARS KDE_TALLY_TAG_0.01-2 double 1
LOOKUP_TABLE default
0.5979540603 
0.6205565871 
0.6197175049 
0.639795926 
0.6529509643 
0.6294572313 
0.6101672807 
0.6012357964 
0.603426858 
0.5716045861 
0.613863958 
0.608809298 
0.6080892147 
0.6213145477 
0.6241771194 
0.5990787372 
0.5861225745 
0.6312105464 
0.6078872341 
0.6090571048 
0.5977950291 
0.5979495207 
0.6296252779 
0.6282586621 
0.6198131392 
0.6209064195 
0.6068720856 
0.6187446542 
0.5915507998 
0.6305824228 
0.5955221702 
0.6069032392 
0.5765568235 
0.5994089419 
0.6095067192 
0.5904090585 
0.6180129533 
0.5999842293 
0.5789650566 
0.642100287 
0.5906972319 
0.5917142022 
0.5945323996 
0.596474131 
0.5948722966 
0.6033996807 
0.6077322519 
0.6078383265 
0.6071122724 
0.4421663962 
0.6049305033 
0.5809621592 
0.5855826706 
0.5887683155 
0.5566934597 
0.5286428702 
0.5283384156 
0.4851678948 
0.4767776464 
0.4700337915 
0.4609404494 
0.4509935391 
0.4775641464 
0.4162261917 
0.4455756441 
0.4670638922 
0.4393054241 
0.4530802441 
0.4892142618 
0.4820106117 
0.5121579356 
0.5283308295 
0.5298785222 
0.5267626602 
0.5729136614 
0.5600521341 
0.6047627568 
0.5904594394 
0.5997669015 
0.5967122343 
0.5684386817 
0.5718564322 
0.533946077 
0.5298143468 
0.5042760168 
0.5041003952 
0.4568236988 
0.4605913489 
0.445491524 
0.5830996162 
0.5964455826 
0.5614023384 
0.5459401742 
0.5262244896 
0.5035844871 
0.5056651034 
0.5070353228 
0.4890243408 
0.4571636648 
0.4459920587 
0.5790755189 
0.5532437407 
0.5650016953 
0.5647637801 
0.5327214089 
0.5286270736 
0.5054721317 
0.4749899184 
0.4918173629 
0.4678361794 
0.463281794 
0.5793154324 
0.5835020186 
0.6015854651 
0.5629426474 
0.5369028791 
0.5100230241 
0.5083134945 
0.4894187204 