# vtk DataFile Version 3.0
MOAB 4.9.0
ASCII
DATASET UNSTRUCTURED_GRID
POINTS 1225 double
0 -0.5 0.5
0 0.5 0.5
0 -0.3333333333 0.5
0 -0.1666666667 0.5
0 0 0.5
0 0.1666666667 0.5
0 0.3333333333 0.5
0 0.5 -0.5
0 0.5 0.3333333333
0 0.5 0.1666666667
0 0.5 0
0 0.5 -0.1666666667
0 0.5 -0.3333333333
0 -0.5 -0.5
0 0.3333333333 -0.5
0 0.1666666667 -0.5
0 0 -0.5
0 -0.1666666667 -0.5
0 -0.3333333333 -0.5
0 -0.5 -0.3333333333
0 -0.5 -0.1666666667
0 -0.5 0
0 -0.5 0.1666666667
0 -0.5 0.3333333333
0 -0.3333333333 0.3333333333
0 -0.1666666667 0.3333333333
0 -6.938893904e-18 0.3333333333
0 0.1666666667 0.3333333333
0 0.3333333333 0.3333333333
0 -0.3333333333 0.1666666667
0 -0.1666666667 0.1666666667
0 -1.387778781e-17 0.1666666667
0 0.1666666667 0.1666666667
0 0.3333333333 0.1666666667
0 -0.3333333333 0
0 -0.1666666667 0
0 0 0
0 0.1666666667 0
0 0.3333333333 0
0 -0.3333333333 -0.1666666667
0 -0.1666666667 -0.1666666667
0 0 -0.1666666667
0 0.1666666667 -0.1666666667
0 0.3333333333 -0.1666666667
0 -0.3333333333 -0.3333333333
0 -0.1666666667 -0.3333333333
0 0 -0.3333333333
0 0.1666666667 -0.3333333333
0 0.3333333333 -0.3333333333
5 -0.5 -0.5
0.2083333333 -0.5 -0.5
0.4166666667 -0.5 -0.5
0.625 -0.5 -0.5
0.8333333333 -0.5 -0.5
1.041666667 -0.5 -0.5
1.25 -0.5 -0.5
1.458333333 -0.5 -0.5
1.666666667 -0.5 -0.5
1.875 -0.5 -0.5
2.083333333 -0.5 -0.5
2.291666667 -0.5 -0.5
2.5 -0.5 -0.5
2.708333333 -0.5 -0.5
2.916666667 -0.5 -0.5
3.125 -0.5 -0.5
3.333333333 -0.5 -0.5
3.541666667 -0.5 -0.5
3.75 -0.5 -0.5
3.958333333 -0.5 -0.5
4.166666667 -0.5 -0.5
4.375 -0.5 -0.5
4.583333333 -0.5 -0.5
4.791666667 -0.5 -0.5
5 -0.5 0.5
5 -0.5 0.3333333333
5 -0.5 0.1666666667
5 -0.5 0
5 -0.5 -0.1666666667
5 -0.5 -0.3333333333
4.791666667 -0.5 0.5
4.583333333 -0.5 0.5
4.375 -0.5 0.5
4.166666667 -0.5 0.5
3.958333333 -0.5 0.5
3.75 -0.5 0.5
3.541666667 -0.5 0.5
3.333333333 -0.5 0.5
3.125 -0.5 0.5
2.916666667 -0.5 0.5
2.708333333 -0.5 0.5
2.5 -0.5 0.5
2.291666667 -0.5 0.5
2.083333333 -0.5 0.5
1.875 -0.5 0.5
1.666666667 -0.5 0.5
1.458333333 -0.5 0.5
1.25 -0.5 0.5
1.041666667 -0.5 0.5
0.8333333333 -0.5 0.5
0.625 -0.5 0.5
0.4166666667 -0.5 0.5
0.2083333333 -0.5 0.5
0.2083333333 -0.5 -0.3333333333
0.4166666667 -0.5 -0.3333333333
0.625 -0.5 -0.3333333333
0.8333333333 -0.5 -0.3333333333
1.041666667 -0.5 -0.3333333333
1.25 -0.5 -0.3333333333
1.458333333 -0.5 -0.3333333333
1.666666667 -0.5 -0.3333333333
1.875 -0.5 -0.3333333333
2.083333333 -0.5 -0.3333333333
2.291666667 -0.5 -0.3333333333
2.5 -0.5 -0.3333333333
2.708333333 -0.5 -0.3333333333
2.916666667 -0.5 -0.3333333333
3.125 -0.5 -0.3333333333
3.333333333 -0.5 -0.3333333333
3.541666667 -0.5 -0.3333333333
3.75 -0.5 -0.3333333333
3.958333333 -0.5 -0.3333333333
4.166666667 -0.5 -0.3333333333
4.375 -0.5 -0.3333333333
4.583333333 -0.5 -0.3333333333
4.791666667 -0.5 -0.3333333333
0.2083333333 -0.5 -0.1666666667
0.4166666667 -0.5 -0.1666666667
0.625 -0.5 -0.1666666667
0.8333333333 -0.5 -0.1666666667
1.041666667 -0.5 -0.1666666667
1.25 -0.5 -0.1666666667
1.458333333 -0.5 -0.1666666667
1.666666667 -0.5 -0.1666666667
1.875 -0.5 -0.1666666667
2.083333333 -0.5 -0.1666666667
2.291666667 -0.5 -0.1666666667
2.5 -0.5 -0.1666666667
2.708333333 -0.5 -0.1666666667
2.916666667 -0.5 -0.1666666667
3.125 -0.5 -0.1666666667
3.333333333 -0.5 -0.1666666667
3.541666667 -0.5 -0.1666666667
3.75 -0.5 -0.1666666667
3.958333333 -0.5 -0.1666666667
4.166666667 -0.5 -0.1666666667
4.375 -0.5 -0.1666666667
4.583333333 -0.5 -0.1666666667
4.791666667 -0.5 -0.1666666667
0.2083333333 -0.5 0
0.4166666667 -0.5 0
0.625 -0.5 0
0.8333333333 -0.5 0
1.041666667 -0.5 0
1.25 -0.5 0
1.458333333 -0.5 0
1.666666667 -0.5 0
1.875 -0.5 0
2.083333333 -0.5 0
2.291666667 -0.5 0
2.5 -0.5 0
2.708333333 -0.5 0
2.916666667 -0.5 0
3.125 -0.5 0
3.333333333 -0.5 0
3.541666667 -0.5 0
3.75 -0.5 0
3.958333333 -0.5 0
4.166666667 -0.5 0
4.375 -0.5 0
4.583333333 -0.5 0
4.791666667 -0.5 0
0.2083333333 -0.5 0.1666666667
0.4166666667 -0.5 0.1666666667
0.625 -0.5 0.1666666667
0.8333333333 -0.5 0.1666666667
1.041666667 -0.5 0.1666666667
1.25 -0.5 0.1666666667
1.458333333 -0.5 0.1666666667
1.666666667 -0.5 0.1666666667
1.875 -0.5 0.1666666667
2.083333333 -0.5 0.1666666667
2.291666667 -0.5 0.1666666667
2.5 -0.5 0.1666666667
2.708333333 -0.5 0.1666666667
2.916666667 -0.5 0.1666666667
3.125 -0.5 0.1666666667
3.333333333 -0.5 0.1666666667
3.541666667 -0.5 0.1666666667
3.75 -0.5 0.1666666667
3.958333333 -0.5 0.1666666667
4.166666667 -0.5 0.1666666667
4.375 -0.5 0.1666666667
4.583333333 -0.5 0.1666666667
4.791666667 -0.5 0.1666666667
0.2083333333 -0.5 0.3333333333
0.4166666667 -0.5 0.3333333333
0.625 -0.5 0.3333333333
0.8333333333 -0.5 0.3333333333
1.041666667 -0.5 0.3333333333
1.25 -0.5 0.3333333333
1.458333333 -0.5 0.3333333333
1.666666667 -0.5 0.3333333333
1.875 -0.5 0.3333333333
2.083333333 -0.5 0.3333333333
2.291666667 -0.5 0.3333333333
2.5 -0.5 0.3333333333
2.708333333 -0.5 0.3333333333
2.916666667 -0.5 0.3333333333
3.125 -0.5 0.3333333333
3.333333333 -0.5 0.3333333333
3.541666667 -0.5 0.3333333333
3.75 -0.5 0.3333333333
3.958333333 -0.5 0.3333333333
4.166666667 -0.5 0.3333333333
4.375 -0.5 0.3333333333
4.583333333 -0.5 0.3333333333
4.791666667 -0.5 0.3333333333
5 0.5 -0.5
4.791666667 0.5 -0.5
4.583333333 0.5 -0.5
4.375 0.5 -0.5
4.166666667 0.5 -0.5
3.958333333 0.5 -0.5
3.75 0.5 -0.5
3.541666667 0.5 -0.5
3.333333333 0.5 -0.5
3.125 0.5 -0.5
2.916666667 0.5 -0.5
2.708333333 0.5 -0.5
2.5 0.5 -0.5
2.291666667 0.5 -0.5
2.083333333 0.5 -0.5
1.875 0.5 -0.5
1.666666667 0.5 -0.5
1.458333333 0.5 -0.5
1.25 0.5 -0.5
1.041666667 0.5 -0.5
0.8333333333 0.5 -0.5
0.625 0.5 -0.5
0.4166666667 0.5 -0.5
0.2083333333 0.5 -0.5
5 -0.3333333333 -0.5
5 -0.1666666667 -0.5
5 0 -0.5
5 0.1666666667 -0.5
5 0.3333333333 -0.5
0.2083333333 0.3333333333 -0.5
0.4166666667 0.3333333333 -0.5
0.625 0.3333333333 -0.5
0.8333333333 0.3333333333 -0.5
1.041666667 0.3333333333 -0.5
1.25 0.3333333333 -0.5
1.458333333 0.3333333333 -0.5
1.666666667 0.3333333333 -0.5
1.875 0.3333333333 -0.5
2.083333333 0.3333333333 -0.5
2.291666667 0.3333333333 -0.5
2.5 0.3333333333 -0.5
2.708333333 0.3333333333 -0.5
2.916666667 0.3333333333 -0.5
3.125 0.3333333333 -0.5
3.333333333 0.3333333333 -0.5
3.541666667 0.3333333333 -0.5
3.75 0.3333333333 -0.5
3.958333333 0.3333333333 -0.5
4.166666667 0.3333333333 -0.5
4.375 0.3333333333 -0.5
4.583333333 0.3333333333 -0.5
4.791666667 0.3333333333 -0.5
0.2083333333 0.1666666667 -0.5
0.4166666667 0.1666666667 -0.5
0.625 0.1666666667 -0.5
0.8333333333 0.1666666667 -0.5
1.041666667 0.1666666667 -0.5
1.25 0.1666666667 -0.5
1.458333333 0.1666666667 -0.5
1.666666667 0.1666666667 -0.5
1.875 0.1666666667 -0.5
2.083333333 0.1666666667 -0.5
2.291666667 0.1666666667 -0.5
2.5 0.1666666667 -0.5
2.708333333 0.1666666667 -0.5
2.916666667 0.1666666667 -0.5
3.125 0.1666666667 -0.5
3.333333333 0.1666666667 -0.5
3.541666667 0.1666666667 -0.5
3.75 0.1666666667 -0.5
3.958333333 0.1666666667 -0.5
4.166666667 0.1666666667 -0.5
4.375 0.1666666667 -0.5
4.583333333 0.1666666667 -0.5
4.791666667 0.1666666667 -0.5
0.2083333333 0 -0.5
0.4166666667 0 -0.5
0.625 0 -0.5
0.8333333333 0 -0.5
1.041666667 0 -0.5
1.25 0 -0.5
1.458333333 0 -0.5
1.666666667 0 -0.5
1.875 0 -0.5
2.083333333 0 -0.5
2.291666667 0 -0.5
2.5 0 -0.5
2.708333333 0 -0.5
2.916666667 0 -0.5
3.125 0 -0.5
3.333333333 0 -0.5
3.541666667 0 -0.5
3.75 0 -0.5
3.958333333 0 -0.5
4.166666667 0 -0.5
4.375 0 -0.5
4.583333333 0 -0.5
4.791666667 0 -0.5
0.2083333333 -0.1666666667 -0.5
0.4166666667 -0.1666666667 -0.5
0.625 -0.1666666667 -0.5
0.8333333333 -0.1666666667 -0.5
1.041666667 -0.1666666667 -0.5
1.25 -0.1666666667 -0.5
1.458333333 -0.1666666667 -0.5
1.666666667 -0.1666666667 -0.5
1.875 -0.1666666667 -0.5
2.083333333 -0.1666666667 -0.5
2.291666667 -0.1666666667 -0.5
2.5 -0.1666666667 -0.5
2.708333333 -0.1666666667 -0.5
2.916666667 -0.1666666667 -0.5
3.125 -0.1666666667 -0.5
3.333333333 -0.1666666667 -0.5
3.541666667 -0.1666666667 -0.5
3.75 -0.1666666667 -0.5
3.958333333 -0.1666666667 -0.5
4.166666667 -0.1666666667 -0.5
4.375 -0.1666666667 -0.5
4.583333333 -0.1666666667 -0.5
4.791666667 -0.1666666667 -0.5
0.2083333333 -0.3333333333 -0.5
0.4166666667 -0.3333333333 -0.5
0.625 -0.3333333333 -0.5
0.8333333333 -0.3333333333 -0.5
1.041666667 -0.3333333333 -0.5
1.25 -0.3333333333 -0.5
1.458333333 -0.3333333333 -0.5
1.666666667 -0.3333333333 -0.5
1.875 -0.3333333333 -0.5
2.083333333 -0.3333333333 -0.5
2.291666667 -0.3333333333 -0.5
2.5 -0.3333333333 -0.5
2.708333333 -0.3333333333 -0.5
2.916666667 -0.3333333333 -0.5
3.125 -0.3333333333 -0.5
3.333333333 -0.3333333333 -0.5
3.541666667 -0.3333333333 -0.5
3.75 -0.3333333333 -0.5
3.958333333 -0.3333333333 -0.5
4.166666667 -0.3333333333 -0.5
4.375 -0.3333333333 -0.5
4.583333333 -0.3333333333 -0.5
4.791666667 -0.3333333333 -0.5
5 0.5 0.5
5 0.3333333333 0.5
5 0.1666666667 0.5
5 0 0.5
5 -0.1666666667 0.5
5 -0.3333333333 0.5
5 0.5 -0.3333333333
5 0.5 -0.1666666667
5 0.5 0
5 0.5 0.1666666667
5 0.5 0.3333333333
5 0.3333333333 0.3333333333
5 0.1666666667 0.3333333333
5 6.938893904e-18 0.3333333333
5 -0.1666666667 0.3333333333
5 -0.3333333333 0.3333333333
5 0.3333333333 0.1666666667
5 0.1666666667 0.1666666667
5 1.387778781e-17 0.1666666667
5 -0.1666666667 0.1666666667
5 -0.3333333333 0.1666666667
5 0.3333333333 0
5 0.1666666667 0
5 0 0
5 -0.1666666667 0
5 -0.3333333333 0
5 0.3333333333 -0.1666666667
5 0.1666666667 -0.1666666667
5 0 -0.1666666667
5 -0.1666666667 -0.1666666667
5 -0.3333333333 -0.1666666667
5 0.3333333333 -0.3333333333
5 0.1666666667 -0.3333333333
5 0 -0.3333333333
5 -0.1666666667 -0.3333333333
5 -0.3333333333 -0.3333333333
0.2083333333 0.5 0.5
0.4166666667 0.5 0.5
0.625 0.5 0.5
0.8333333333 0.5 0.5
1.041666667 0.5 0.5
1.25 0.5 0.5
1.458333333 0.5 0.5
1.666666667 0.5 0.5
1.875 0.5 0.5
2.083333333 0.5 0.5
2.291666667 0.5 0.5
2.5 0.5 0.5
2.708333333 0.5 0.5
2.916666667 0.5 0.5
3.125 0.5 0.5
3.333333333 0.5 0.5
3.541666667 0.5 0.5
3.75 0.5 0.5
3.958333333 0.5 0.5
4.166666667 0.5 0.5
4.375 0.5 0.5
4.583333333 0.5 0.5
4.791666667 0.5 0.5
[...]
POINT_DATA 1225
SCALARS KDE_TALLY_TAG double 1
LOOKUP_TABLE default
0.2716195777 
0.2953282516 
0.2822313166 
0.2939401736 
0.2985032721 
0.3129902029 
0.2881433662 
0.2841913985 
0.311415552 
0.2648373908 
0.2875730617 
0.3460967775 
0.2935053951 
0.2708148518 
0.3063179149 
0.3045453818 
0.2828185355 
0.317045257 
0.2796177637 
0.2841733553 
0.3192181585 
0.297385067 
0.3057622292 
0.3250449649 
0.2973132607 
0.3218547878 
0.2965068275 
0.3013909053 
0.3186244795 
0.3254581671 
0.2767128122 
0.3027135332 
0.2813016188 
0.2801474735 
0.2930853592 
0.2889446142 
0.3161731228 
0.3066366335 
0.3112799065 
0.3097738422 
0.2733532167 
0.2739852981 
0.3013273902 
0.2682598109 
0.2841182165 
0.322727981 
0.2970973102 
0.293574818 
0.3051023682 
0.03642679215 
0.2995301678 
0.2566729433 
0.2474507537 
0.2397693298 
0.2405126146 
0.2258894245 
0.1791992612 
0.1914608611 
0.144489871 
0.1056150317 
0.1267451025 
0.1403639304 
0.1140019027 
0.1106137757 
0.06455864343 
0.08872247327 
0.07129437197 
0.06993708439 
0.05925715721 
0.04615286347 
0.06369106035 
0.03615018686 
0.02247389465 
0.02683595522 
0.03682916182 
0.0343874506 
0.02809653097 
0.04836708236 
0.02815588459 
0.04459035564 
0.05058786696 
0.04189646188 
0.05265607684 
0.04783979105 
0.05774117013 
0.1001202218 
0.0868323321 
0.1008952636 
0.08883523964 
0.1204997842 
0.1115638402 
0.1413623517 
0.1268714157 
0.1591796173 
0.1790173915 
0.1946211391 
0.2031573644 
0.2121417793 
0.2252996526 
0.2658438587 
0.2839572969 
0.2764292878 
0.2453915503 
0.264828369 
0.2583400293 
0.2205389978 
0.2419433311 
0.1817742553 
0.2068086127 
0.1287466443 
0.1433196113 
0.1183419885 
0.1039790552 
0.1257137524 
0.09270155084 
0.09996569216 
0.09782028054 
0.07764625669 
0.06465090187 
0.04227023745 
0.05062896121 
0.06226554626 
0.04588462851 
0.04658162 
0.0377461165 
0.2930788285 
0.2666083552 
0.2410333474 
0.2506824264 
0.2229060464 
0.1939186468 
0.2019728521 
0.1579938018 
0.1416168591 
0.1676989213 
0.1416483384 
0.1090603688 
0.1113608479 
0.1279388442 
0.07855267094 
0.08070105135 
0.06686429249 
0.07875203484 
0.07451934248 
0.05208027117 
0.04161182316 
0.04608848392 
0.02586605483 
0.3005160261 
0.2853991071 
0.2131735172 
0.2566907071 
0.2180962958 
0.2621875361 
0.1786289413 
0.1559468657 
0.1286702395 
0.1856144776 
0.1476440764 
0.1296286465 
0.0970563753 
0.1054578282 
0.08032914978 
0.08109098942 
0.0692037728 
0.06466695284 
0.05341336972 
0.04930118501 
0.04220776883 
0.03021959407 
0.02845058 
0.2572194639 
0.2708901616 
0.2759059119 
0.2493704411 
0.2295095339 
0.1806353599 
0.1702892056 
0.1663643118 
0.1459438044 
0.1606036125 
0.1045315289 
0.131788609 
0.1179053986 
0.08206990566 
0.07030034001 
0.07457747916 
0.07241800293 
0.05028010094 
0.04389218881 
0.05502300318 
0.04286136503 
0.0487937238 
0.02948264836 
0.2937765716 
0.2841658172 
0.2587424153 
0.2393887755 
0.2701505399 
0.2164205021 
0.1838493539 
0.2047000617 
0.1765072273 
0.1815231367 
0.1358817148 
0.1113547748 
0.08624127282 
0.1097674771 
0.05802393047 
0.08847074012 
0.1100475695 
0.04565717416 
0.06818075564 
0.04914478975 
0.05435400041 
0.02747764146 
0.04973306483 
0.03894041405 
0.02502470119 
0.04819937652 
0.02606339997 
0.05492341663 
0.04753217406 
0.05129345628 
0.0867675444 
0.08667187883 
0.06925772984 
0.1086477569 
0.1187578032 
0.09991107009 
0.1081021998 
0.1455479749 
0.1841690798 
0.1908965156 
0.2038605502 
0.2187631391 
0.1932127762 
0.2326782213 
0.2736626367 
0.2751329789 
0.259407565 
0.03825792327 
0.03409670238 
0.02654510357 
0.03947902866 
0.04398275394 
0.2854109212 
0.2601103148 
0.3170141845 
0.2725958213 
0.2318190105 
0.2242704277 
0.1963625825 
0.170513165 
0.1594869548 
0.1292227667 
0.1272445664 
0.121327244 
0.1075622152 
0.07652293849 
0.09180101526 
0.09618698234 
0.09029413211 
0.04569607873 
0.0681476911 
0.05876908121 
0.04778151682 
0.04884448907 
0.06429207668 
0.277306814 
0.3113188171 
0.2775316116 
0.268001207 
0.2021135897 
0.2103401526 
0.220672715 
0.1722865647 
0.182400513 
0.1288912073 
0.1458708156 
0.1339644686 
0.1024731954 
0.1045632358 
0.0844623252 
0.09760207981 
0.06671170021 
0.08084838041 
0.06048769372 
0.08194187034 
0.05268496106 
0.04384107552 
0.03616397951 
0.3144715479 
0.2964199146 
0.2246954962 
0.2317941564 
0.2664953304 
0.2074258239 
0.1743652736 
0.1704374172 
0.1598132032 
0.161302984 
0.1354392468 
0.09073034829 
0.1210643866 
0.08728149364 
0.1262841654 
0.07452545678 
0.09845464484 
0.05112760503 
0.07040210205 
0.05295645713 
0.02243684453 
0.03775840669 
0.03615135304 
0.3256243489 
0.3021787233 
0.3295882946 
0.2519612668 
0.2454406372 
0.2006777318 
0.1969594784 
0.1823543966 
0.1415647781 
0.134423099 
0.143436721 
0.1031058443 
0.1030982398 
0.09000952204 
0.0856540736 
0.07694337241 
0.07504230328 
0.07717813875 
0.0555604501 
0.04835299865 
0.04738384501 
0.03770254426 
0.05534031399 
0.3258396837 
0.2844211965 
0.2496886449 
0.2379838215 
0.2183457817 
0.2034206554 
0.1828154809 
0.1505020008 
0.1621359077 
0.1331159698 
0.1501333175 
0.1150008716 
0.1052023628 
0.08419351459 
0.08807721953 
0.07230655567 
0.05135234711 
0.06470903792 
0.06801896881 
0.03628871739 
0.04764899509 
0.04045395009 
0.02857909013 
0.03906346332 
0.0335542588 
0.02773356043 
0.02755439063 
0.024879219 
0.04371739954 
0.02874160009 
0.03876624414 
0.03143971954 
0.02905721096 
0.03053769972 
0.04654712285 
0.05002299023 
0.05108621386 
0.03007626774 
0.04021141803 
0.0304630467 
0.03699356008 
0.03882173119 
0.04739665776 
0.03625212852 
0.02877827179 
0.02719932958 
0.03222653106 
0.03791881788 
0.03966646019 
0.04158208933 
0.02621723553 
0.03892981138 
0.04621086545 
0.03068826568 
0.03984358774 
0.02785664462 
0.03062761313 
0.02397437322 
0.02861324057 
0.2807816134 
0.2559578573 
0.2334787432 
0.2498914919 
0.2512800601 
0.1765118337 
0.1601471237 
0.1627878336 
0.1156797691 
0.149042663 
0.1199881681 
0.1246737763 
0.1049695424 
0.07578151422 
0.08520606814 
0.07258314002 
0.07392598593 
0.07189197369 
0.06600889805 
0.0659895564 
0.0333566889 
0.05689153656 
0.03933398694 
0.2958881638 
0.2891650347 
0.2965998402 
0.2415137455 
0.2201345211 
0.2029526233 
0.1919974751 
0.1735572767 
0.1630861886 
0.1621810392 
0.1135593606 
0.1329858844 
0.1202231239 
0.101165536 
0.08697501401 
0.1119016237 
0.04845684017 
0.06691368333 
0.0593724537 
0.05812776206 
0.06478088226 
0.03927829255 
0.04474562528 
0.2568982516 
0.2819889369 
0.2987445671 
0.2341067338 
0.2624426156 
0.1876844374 
0.2054034863 
0.1847974847 
0.1979815392 
0.1370171648 
0.1091285908 
0.09961094495 
0.09404956882 
0.1282885497 
0.07337261152 
0.07715400457 
0.08622677889 
0.06068929223 
0.0676627062 
0.04503335788 
0.0499622584 
0.03764575629 
0.04091931147 
0.2690828473 
0.256926504 
0.2727302111 
0.2619673083 
0.2116745508 
0.211541799 
0.1840617299 
0.2076261125 
0.1477941602 
0.1381481822 
0.1432741762 
0.1539158425 
0.09387390339 
0.08263572707 
0.07724046782 
0.1014180343 
0.08545112233 
0.0411091816 
0.07433030259 
0.0435647771 
0.06481881986 
0.0225433426 
0.04362443986 
0.2693960235 
0.3280143798 
0.2643451399 
0.2617770163 
0.2203094234 
0.1511371042 
0.2223434095 
0.1745559494 
0.1504849677 
0.1205152114 
0.1400057255 
0.1396900592 
0.1161313008 
0.07734612111 
0.0967536632 
0.06980408277 
0.1196372468 
0.06229449348 
0.07247841382 
0.04455254437 
0.03559629188 
0.03541954357 
0.04541114981 
0.276329646 
0.2681265412 
0.2726698248 
0.2151174632 
0.1944495384 
0.1678647859 
0.1828083668 
0.160330358 
0.1666586372 
0.1612248642 
0.1405844274 
0.1136405839 
0.09219653382 
0.08962307082 
0.09116059813 
0.07271587575 
0.06227379022 
0.05565677259 
0.05325713742 
0.04924871807 
0.0385448655 
0.04661669112 
0.03968887539 
0.2932648434 
0.2578757534 
0.2400411147 
0.2313835538 
0.2232221795 
0.2097913891 
0.1781246066 
0.1651740496 
0.1426879797 
0.1494952175 
0.1179710739 
0.1170001412 
0.09419910227 
0.06875264576 
0.08606962237 
0.07832686053 
0.07141211462 
0.06698812594 
0.03909519735 
0.06391794463 
0.07123336057 
0.03700806732 
0.02941886999 
0.2560356086 
0.2571557286 
0.2426017786 
0.2549004089 
0.2158461949 
0.2221497886 
0.1774508216 
0.18740137 
0.1354695134 
0.1477310211 
0.1638477372 
0.118994938 
0.09053862622 
0.1093442662 
0.09172664948 
0.08525065711 
0.0871416098 
0.07683964218 
0.05015275213 
0.04241354107 
0.0529902707 
0.03050538031 
0.02633799391 
0.2894340927 
0.2722498988 
0.3035864597 
0.2153975657 
0.2463637415 
0.2161423833 
0.1917787874 
0.1797272546 
0.1604426992 
0.1502737166 
0.1348719704 
0.1114015338 
0.1379743641 
0.1195374324 
0.0830203094 
0.07065016913 
0.06993066491 
0.04905673745 
0.04756362985 
0.06460457695 
0.0450816432 
0.04469266965 
0.03080889708 
0.2927904265 
0.2705219138 
0.2955287835 
0.2808718653 
0.2508704813 
0.2083746211 
0.2182160037 
0.1745059029 
0.1766285403 
0.1350232622 
0.1206136388 
0.152367576 
0.1328665128 
0.1110044527 
0.08864980833 
0.07217026509 
0.06480780934 
0.123652903 
0.05907657274 
0.05843742356 
0.05829318581 
0.03816986422 
0.03918826473 
0.2885305719 
0.3005038174 
0.2753255248 
0.2278760761 
0.1996533017 
0.1988309459 
0.1555892701 
0.1751775968 
0.1737324227 
0.1483832654 
0.150462254 
0.1077153861 
0.1233209616 
0.1117135384 
0.09993806709 
0.07692101835 
0.07361717497 
0.07311649473 
0.04375237941 
0.04769297355 
0.06100570499 
0.05496636678 
0.04018551846 
0.2877350658 
0.2775919716 
0.2469188853 
0.2430121363 
0.2129483778 
0.2183338611 
0.1941638468 
0.1855717492 
0.1487791487 
0.1246101879 
0.1257256665 
0.1105995917 
0.1317204235 
0.08949294941 
0.0918613716 
0.0808907362 
0.05343233373 
0.04521906979 
0.04460421394 
0.04789592624 
0.04727329169 
0.05905290455 
0.05998280353 
0.2942012948 
0.3066193792 
0.289795415 
0.2271146505 
0.2146609419 
0.1989077124 
0.1889045587 
0.2147458821 
0.1568618 
0.1561807492 
0.1277742307 
0.1505354079 
0.1095648613 
0.09040520876 
0.08834623105 
0.09513577209 
0.07029932695 
0.06714237598 
0.04614742507 
0.06581003711 
0.03691048095 
0.04686957149 
0.03504341822 
0.3004178732 
0.2896162597 
0.2464396933 
0.2119652181 
0.21099739 
0.203499127 
0.18938004 
0.1832820781 
0.1630546953 
0.1430938036 
0.1451203713 
0.1141973156 
0.09469802639 
0.08539221183 
0.08758274778 
0.07628005206 
0.06589737948 
0.04655882833 
0.07699279011 
0.05317348647 
0.05509742778 
0.06623845052 
0.03981833624 
0.2963182436 
0.2884923067 
0.2494824535 
0.2391523945 
0.2504589884 
0.2060972587 
0.205981497 
0.1656523527 
0.1817839901 
0.130640278 
0.1199002995 
0.1307729045 
0.1012712635 
0.097907662 
0.07968289877 
0.06945912533 
0.08189576496 
0.07186837987 
0.0504450822 
0.05017372738 
0.03413440399 
0.03161115233 
0.04108550901 
0.3048946801 
0.3353987307 
0.259046538 
0.2495212657 
0.2422569274 
0.1829369574 
0.2108702391 
0.2040555197 
0.171540317 
0.1628818401 
0.1420762646 
0.0973235894 
0.107213362 
0.08299689893 
0.1128739656 
0.09228728194 
0.07066336494 
0.05985436926 
0.0603500467 
0.06732393574 
0.05548338562 
0.04937416836 
0.05528835298 
0.353222102 
0.2954067881 
0.2836540535 
0.3058178197 
0.2329673306 
0.2828706485 
0.2215526101 
0.2248243999 
0.1562051234 
0.1700764445 
0.2024418818 
0.1522628733 
0.138495201 
0.1050101581 
0.106263083 
0.08166523525 
0.06428314424 
0.08596446046 
0.06650180418 
0.07838069393 
0.03297083931 
0.05404904418 
0.04133853708 
0.293143403 
0.3038190602 
0.2818436944 
0.2554184235 
0.2155705923 
0.2139079269 
0.2074156668 
0.1818110502 
0.1346353542 
0.1300413297 
0.1348176488 
0.1435213966 
0.1328236891 
0.1031221178 
0.07903114737 
0.07109337483 
0.07421121001 
0.0776829113 
0.04730611473 
0.05741162942 
0.05528820029 
0.02539505482 
0.02652414226 
0.3027200301 
0.2858646671 
0.2464915104 
0.2206899677 
0.2176927637 
0.2251728912 
0.203451375 
0.1752699471 
0.157704144 
0.1547004687 
0.1316693737 
0.1049614911 
0.1070875082 
0.1021681734 
0.08544720993 
0.05852589321 
0.08559937265 
0.06711526197 
0.04434549541 
0.06133659548 
0.04518796587 
0.03957567063 
0.0340309665 
0.3233362518 
0.2936778655 
0.2596571982 
0.2465948535 
0.2481664903 
0.2242858503 
0.2435720325 
0.1688092107 
0.1364452853 
0.1623851938 
0.148314613 
0.1237267762 
0.1379849843 
0.1255862276 
0.07315757612 
0.09344360568 
0.07406158912 
0.06775557748 
0.04733592993 
0.05021919237 
0.05982616843 
0.0400502768 
0.05832304915 
0.2854194252 
0.2839592559 
0.277772502 
0.2636447379 
0.2316632799 
0.2418938044 
0.2156228568 
0.1945905994 
0.1718133237 
0.1261843304 
0.1580786917 
0.1241573272 
0.119017707 
0.09030206709 
0.08320077968 
0.09431248022 
0.08428576134 
0.06212583217 
0.04675504837 
0.05663665555 
0.05906281869 
0.0302932123 
0.03188615333 
0.284725204 
0.2938845578 
0.2735604377 
0.274532038 
0.2498819904 
0.2010697011 
0.2072397195 
0.1605510306 
0.1887446663 
0.1429378187 
0.1359008053 
0.1253090021 
0.1278187653 
0.1361993348 
0.09304274633 
0.08778176836 
0.06716187348 
0.08996127745 
0.06641070474 
0.05740480081 
0.04797141794 
0.02965640489 
0.0332038109 
0.301989243 
0.2756188078 
0.2425730454 
0.2398156401 
0.2304097488 
0.1953435534 
0.1575218334 
0.1848915486 
0.164995578 
0.142793116 
0.1252495599 
0.1193421907 
0.1015054493 
0.08345846146 
0.07632427231 
0.08054140246 
0.08199129936 
0.06373773963 
0.06182920745 
0.04271252259 
0.03789520443 
0.03345155873 
0.03803546245 
0.2867467665 
0.2889166265 
0.2379361047 
0.2714210718 
0.2454547508 
0.199781151 
0.1842258162 
0.183365145 
0.1521426403 
0.1444404061 
0.1518335901 
0.1279036575 
0.1067229927 
0.1177089995 
0.09876601481 
0.09671197574 
0.08160156404 
0.05700655447 
0.0728435479 
0.04267669792 
0.05420545067 
0.05825350031 
0.03394718991 
0.2756052525 
0.3055443274 
0.2682299789 
0.2717690495 
0.244073009 
0.238049571 
0.2087586736 
0.1873997688 
0.1444976745 
0.1594822893 
0.123151843 
0.1511284156 
0.1274988533 
0.1179621893 
0.07829967729 
0.08594955659 
0.05884465961 
0.08926133058 
0.06038303455 
0.05034230296 
0.06236218429 
0.03552736126 
0.04454247512 
0.3103732572 
0.2319476924 
0.2529374691 
0.2556907582 
0.2113407595 
0.2400090217 
0.2062350859 
0.1699831019 
0.1670008094 
0.1432110735 
0.1411614326 
0.1145575398 
0.08782053765 
0.0913256947 
0.1078801765 
0.05783500584 
0.08623665206 
0.06502660931 
0.04915788234 
0.05688422427 
0.06020653795 
0.03869148566 
0.03536668374 
0.2877036778 
0.310657281 
0.2672474465 
0.2814495679 
0.2142958082 
0.2202862065 
0.2305144286 
0.1652518174 
0.1822931312 
0.1540649832 
0.1416486593 
0.09964884776 
0.1220341561 
0.1177178439 
0.08504893015 
0.08768192945 
0.06292168829 
0.04748004661 
0.08159230954 
0.06710439967 
0.04571754866 
0.05895175617 
0.03532341597 
0.3022287103 
0.2658445904 
0.2527541865 
0.278016048 
0.1983190325 
0.2209879235 
0.2074169702 
0.1411342315 
0.1448020571 
0.119220868 
0.127490606 
0.1057721642 
0.1229946815 
0.1164243011 
0.110187857 
0.1172759687 
0.08210422576 
0.06320675845 
0.04764167117 
0.06038697306 
0.08405495195 
0.04443304365 
0.04913698497 
0.3291443779 
0.300070564 
0.280702347 
0.2491179553 
0.2549941761 
0.2390622129 
0.2031627904 
0.196917732 
0.1798451688 
0.1394862898 
0.1496827656 
0.1477186686 
0.1220362011 
0.1122520876 
0.09108633477 
0.07069378787 
0.08673393998 
0.06218018087 
0.06892670604 
0.04732219752 
0.04547951908 
0.04077180536 
0.03614112281 
0.310618013 
0.278249786 
0.2675528469 
0.259068983 
0.2386887663 
0.2056647737 
0.1923362502 
0.1924156633 
0.1594835108 
0.1403456708 
0.144577108 
0.1195677742 
0.1192535604 
0.1332445275 
0.09441750921 
0.07792185598 
0.06937121208 
0.09309470255 
0.0723087824 
0.05914461767 
0.05701914068 
0.05633449854 
0.03348307635 
0.2947546732 
0.2739174024 
0.2632044949 
0.2016050927 
0.2491793735 
0.1820136023 
0.1886837311 
0.1879287079 
0.1400866536 
0.1412354104 
0.1033968809 
0.1131289715 
0.09484956182 
0.1329834845 
0.1211194955 
0.06842292796 
0.06923320892 
0.06079294277 
0.06000193539 
0.04314621627 
0.0449446488 
0.04070054195 
0.03674913755 
0.2830733864 
0.2668787774 
0.205317692 
0.2742110204 
0.2402196762 
0.2227036859 
0.174265295 
0.1506302705 
0.1390538936 
0.1488756446 
0.1161103388 
0.1154763108 
0.1151845622 
0.1064141834 
0.07568656796 
0.09019913677 
0.07337451154 
0.07410857565 
0.08693501511 
0.05957693438 
0.04107485706 
0.0339001026 
0.02676900647 
0.2937473706 
0.2835187057 
0.2814661706 
0.2638780903 
0.2306561706 
0.2180756031 
0.2184116006 
0.1726980886 
0.1595310817 
0.1562638098 
0.147077315 
0.1393733371 
0.1148654415 
0.1446521074 
0.09183535427 
0.07923664203 
0.08712577813 
0.09951757494 
0.0776029036 
0.04637415942 
0.05423376624 
0.04674734326 
0.04174416675 
0.2977558135 
0.2675352232 
0.2743822103 
0.258748217 
0.2151740112 
0.2346734431 
0.2116100149 
0.187752865 
0.1594399118 
0.1570723665 
0.1623499776 
0.1094091277 
0.1139012036 
0.1239329232 
0.09218066898 
0.0857669943 
0.07770782803 
0.05100213024 
0.06145683906 
0.03961594854 
0.06473735062 
0.03164776559 
0.05422642744 
0.3186625188 
0.2766308066 
0.2697326526 
0.2388727786 
0.2603502964 
0.2315952468 
0.2349449294 
0.1967238197 
0.1476738664 
0.1721843674 
0.1510900425 
0.1571528744 
0.1192999277 
0.1314755883 
0.1174117476 
0.06952895386 
0.0809152528 
0.06222883641 
0.05865043657 
0.05421792457 
0.04858253335 
0.06159971841 
0.04269463859 
0.2898750187 
0.3049356081 
0.23889833 
0.286859865 
0.1900576511 
0.2382974207 
0.2120906742 
0.2107015709 
0.1497808856 
0.147095732 
0.1281503806 
0.1503445614 
0.1232098004 
0.0849587206 
0.1080008607 
0.07078278806 
0.07543010389 
0.05645932606 
0.06051018198 
0.07402885553 
0.04191391733 
0.03886179224 
0.03791364902 
SCALARS KDE_ERROR_TAG double 1
LOOKUP_TABLE default
0.07758112048 
0.07614156688 
0.06939116086 
0.0626174431 
0.06593600941 
0.06845216634 
0.07470836423 
0.07207168045 
0.06719907252 
0.07107086563 
0.06823200776 
0.0714024301 
0.06754238861 
0.06928540573 
0.07331880462 
0.07010896926 
0.07320492432 
0.07038825734 
0.07563483117 
0.06890544486 
0.06934839721 
0.06556497607 
0.07240999279 
0.06901228024 
0.05800151588 
0.06201101123 
0.05753663654 
0.06949820106 
0.06278235639 
0.0567414444 
0.06898213737 
0.06720441433 
0.05637532398 
0.06178516604 
0.05777912039 
0.06443019567 
0.06191429722 
0.05940883337 
0.06775413532 
0.06032864023 
0.05944231961 
0.06268868949 
0.06074754803 
0.05994483403 
0.0572124103 
0.07070779942 
0.05981259033 
0.06779045601 
0.05338400602 
0.2368962233 
0.07332826353 
0.07413604062 
0.07843540377 
0.0883816396 
0.0839325707 
0.09953852183 
0.1119560642 
0.1153513489 
0.1121757589 
0.124419122 
0.118662681 
0.1327826047 
0.1307880725 
0.1411534988 
0.1369390806 
0.1566796129 
0.1826598049 
0.1718096291 
0.1636756366 
0.2143848063 
0.2244226627 
0.2736249728 
0.2416244876 
0.1842380819 
0.2536891582 
0.1948317738 
0.2669171096 
0.2663520817 
0.1517000887 
0.2336268645 
0.208054495 
0.1531238932 
0.1989090985 
0.1916910332 
0.1717114252 
0.1915131243 
0.1514667838 
0.1561222051 
0.1551155725 
0.1509790718 
0.1562965368 
0.1304615529 
0.1084725712 
0.1101460445 
0.1150177692 
0.1057841685 
0.115834716 
0.09209847315 
0.07907416597 
0.08339580215 
0.07581994277 
0.07949292692 
0.07155676626 
0.07839185704 
0.07611520526 
0.08818812026 
0.08714341672 
0.0908835246 
0.1039515298 
0.1033610327 
0.1118606508 
0.124581801 
0.105536003 
0.1335741097 
0.146818681 
0.1501321575 
0.1579410082 
0.1863585617 
0.1620931166 
0.173823953 
0.1955142212 
0.2068435108 
0.2477596123 
0.2596607929 
0.2180430819 
0.07846727571 
0.07771347924 
0.07655958725 
0.08309707869 
0.09259725254 
0.101267427 
0.1077430809 
0.1037771295 
0.1191066994 
0.1153652069 
0.1407775656 
0.1262446237 
0.1473704113 
0.1441604012 
0.1346843538 
0.1797702573 
0.1952162357 
0.1621726246 
0.1908399547 
0.2422043035 
0.1941176443 
0.1892714057 
0.2533287019 
0.06913871446 
0.08180033432 
0.07336258514 
0.09347670414 
0.08235359799 
0.08586510065 
0.09803047306 
0.1029521208 
0.1175692503 
0.1135391057 
0.1160839987 
0.143896704 
0.1442838615 
0.141544524 
0.1420345258 
0.1591114176 