# vtk DataFile Version 3.0
MOAB 4.9.0
ASCII
DATASET UNSTRUCTURED_GRID
POINTS 1225 double
0 -0.5 0.5
0 0.5 0.5
0 -0.3333333333 0.5
0 -0.1666666667 0.5
0 0 0.5
0 0.1666666667 0.5
0 0.3333333333 0.5
0 0.5 -0.5
0 0.5 0.3333333333
0 0.5 0.1666666667
0 0.5 0
0 0.5 -0.1666666667
0 0.5 -0.3333333333
0 -0.5 -0.5
0 0.3333333333 -0.5
0 0.1666666667 -0.5
0 0 -0.5
0 -0.1666666667 -0.5
0 -0.3333333333 -0.5
0 -0.5 -0.3333333333
0 -0.5 -0.1666666667
0 -0.5 0
0 -0.5 0.1666666667
0 -0.5 0.3333333333
0 -0.3333333333 0.3333333333
0 -0.1666666667 0.3333333333
0 -6.938893904e-18 0.3333333333
0 0.1666666667 0.3333333333
0 0.3333333333 0.3333333333
0 -0.3333333333 0.1666666667
0 -0.1666666667 0.1666666667
0 -1.387778781e-17 0.1666666667
0 0.1666666667 0.1666666667
0 0.3333333333 0.1666666667
0 -0.3333333333 0
0 -0.1666666667 0
0 0 0
0 0.1666666667 0
0 0.3333333333 0
0 -0.3333333333 -0.1666666667
0 -0.1666666667 -0.1666666667
0 0 -0.1666666667
0 0.1666666667 -0.1666666667
0 0.3333333333 -0.1666666667
0 -0.3333333333 -0.3333333333
0 -0.1666666667 -0.3333333333
0 0 -0.3333333333
0 0.1666666667 -0.3333333333
0 0.3333333333 -0.3333333333
5 -0.5 -0.5
0.2083333333 -0.5 -0.5
0.4166666667 -0.5 -0.5
0.625 -0.5 -0.5
0.8333333333 -0.5 -0.5
1.041666667 -0.5 -0.5
1.25 -0.5 -0.5
1.458333333 -0.5 -0.5
1.666666667 -0.5 -0.5
1.875 -0.5 -0.5
2.083333333 -0.5 -0.5
2.291666667 -0.5 -0.5
2.5 -0.5 -0.5
2.708333333 -0.5 -0.5
2.916666667 -0.5 -0.5
3.125 -0.5 -0.5
3.333333333 -0.5 -0.5
3.541666667 -0.5 -0.5
3.75 -0.5 -0.5
3.958333333 -0.5 -0.5
4.166666667 -0.5 -0.5
4.375 -0.5 -0.5
4.583333333 -0.5 -0.5
4.791666667 -0.5 -0.5
5 -0.5 0.5
5 -0.5 0.3333333333
5 -0.5 0.1666666667
5 -0.5 0
5 -0.5 -0.1666666667
5 -0.5 -0.3333333333
4.791666667 -0.5 0.5
4.583333333 -0.5 0.5
4.375 -0.5 0.5
4.166666667 -0.5 0.5
3.958333333 -0.5 0.5
3.75 -0.5 0.5
3.541666667 -0.5 0.5
3.333333333 -0.5 0.5
3.125 -0.5 0.5
2.916666667 -0.5 0.5
2.708333333 -0.5 0.5
2.5 -0.5 0.5
2.291666667 -0.5 0.5
2.083333333 -0.5 0.5
1.875 -0.5 0.5
1.666666667 -0.5 0.5
1.458333333 -0.5 0.5
1.25 -0.5 0.5
1.041666667 -0.5 0.5
0.8333333333 -0.5 0.5
0.625 -0.5 0.5
0.4166666667 -0.5 0.5
0.2083333333 -0.5 0.5
0.2083333333 -0.5 -0.3333333333
0.4166666667 -0.5 -0.3333333333
0.625 -0.5 -0.3333333333
0.8333333333 -0.5 -0.3333333333
1.041666667 -0.5 -0.3333333333
1.25 -0.5 -0.3333333333
1.458333333 -0.5 -0.3333333333
1.666666667 -0.5 -0.3333333333
1.875 -0.5 -0.3333333333
2.083333333 -0.5 -0.3333333333
2.291666667 -0.5 -0.3333333333
2.5 -0.5 -0.3333333333
2.708333333 -0.5 -0.3333333333
2.916666667 -0.5 -0.3333333333
3.125 -0.5 -0.3333333333
3.333333333 -0.5 -0.3333333333
3.541666667 -0.5 -0.3333333333
3.75 -0.5 -0.3333333333
3.958333333 -0.5 -0.3333333333
4.166666667 -0.5 -0.3333333333
4.375 -0.5 -0.3333333333
4.583333333 -0.5 -0.3333333333
4.791666667 -0.5 -0.3333333333
0.2083333333 -0.5 -0.1666666667
0.4166666667 -0.5 -0.1666666667
0.625 -0.5 -0.1666666667
0.8333333333 -0.5 -0.1666666667
1.041666667 -0.5 -0.1666666667
1.25 -0.5 -0.1666666667
1.458333333 -0.5 -0.1666666667
1.666666667 -0.5 -0.1666666667
1.875 -0.5 -0.1666666667
2.083333333 -0.5 -0.1666666667
2.291666667 -0.5 -0.1666666667
2.5 -0.5 -0.1666666667
2.708333333 -0.5 -0.1666666667
2.916666667 -0.5 -0.1666666667
3.125 -0.5 -0.1666666667
3.333333333 -0.5 -0.1666666667
3.541666667 -0.5 -0.1666666667
3.75 -0.5 -0.1666666667
3.958333333 -0.5 -0.1666666667
4.166666667 -0.5 -0.1666666667
4.375 -0.5 -0.1666666667
4.583333333 -0.5 -0.1666666667
4.791666667 -0.5 -0.1666666667
0.2083333333 -0.5 0
0.4166666667 -0.5 0
0.625 -0.5 0
0.8333333333 -0.5 0
1.041666667 -0.5 0
1.25 -0.5 0
1.458333333 -0.5 0
1.666666667 -0.5 0
1.875 -0.5 0
2.083333333 -0.5 0
2.291666667 -0.5 0
2.5 -0.5 0
2.708333333 -0.5 0
2.916666667 -0.5 0
3.125 -0.5 0
3.333333333 -0.5 0
3.541666667 -0.5 0
3.75 -0.5 0
3.958333333 -0.5 0
4.166666667 -0.5 0
4.375 -0.5 0
4.583333333 -0.5 0
4.791666667 -0.5 0
0.2083333333 -0.5 0.1666666667
0.4166666667 -0.5 0.1666666667
0.625 -0.5 0.1666666667
0.8333333333 -0.5 0.1666666667
1.041666667 -0.5 0.1666666667
1.25 -0.5 0.1666666667
1.458333333 -0.5 0.1666666667
1.666666667 -0.5 0.1666666667
1.875 -0.5 0.1666666667
2.083333333 -0.5 0.1666666667
2.291666667 -0.5 0.1666666667
2.5 -0.5 0.1666666667
2.708333333 -0.5 0.1666666667
2.916666667 -0.5 0.1666666667
3.125 -0.5 0.1666666667
3.333333333 -0.5 0.1666666667
3.541666667 -0.5 0.1666666667
3.75 -0.5 0.1666666667
3.958333333 -0.5 0.1666666667
4.166666667 -0.5 0.1666666667
4.375 -0.5 0.1666666667
4.583333333 -0.5 0.1666666667
4.791666667 -0.5 0.1666666667
0.2083333333 -0.5 0.3333333333
0.4166666667 -0.5 0.3333333333
0.625 -0.5 0.3333333333
0.8333333333 -0.5 0.3333333333
1.041666667 -0.5 0.3333333333
1.25 -0.5 0.3333333333
1.458333333 -0.5 0.3333333333
1.666666667 -0.5 0.3333333333
1.875 -0.5 0.3333333333
2.083333333 -0.5 0.3333333333
2.291666667 -0.5 0.3333333333
2.5 -0.5 0.3333333333
2.708333333 -0.5 0.3333333333
2.916666667 -0.5 0.3333333333
3.125 -0.5 0.3333333333
3.333333333 -0.5 0.3333333333
3.541666667 -0.5 0.3333333333
3.75 -0.5 0.3333333333
3.958333333 -0.5 0.3333333333
4.166666667 -0.5 0.3333333333
4.375 -0.5 0.3333333333
4.583333333 -0.5 0.3333333333
4.791666667 -0.5 0.3333333333
5 0.5 -0.5
4.791666667 0.5 -0.5
4.583333333 0.5 -0.5
4.375 0.5 -0.5
4.166666667 0.5 -0.5
3.958333333 0.5 -0.5
3.75 0.5 -0.5
3.541666667 0.5 -0.5
3.333333333 0.5 -0.5
3.125 0.5 -0.5
2.916666667 0.5 -0.5
2.708333333 0.5 -0.5
2.5 0.5 -0.5
2.291666667 0.5 -0.5
2.083333333 0.5 -0.5
1.875 0.5 -0.5
1.666666667 0.5 -0.5
1.458333333 0.5 -0.5
1.25 0.5 -0.5
1.041666667 0.5 -0.5
0.8333333333 0.5 -0.5
0.625 0.5 -0.5
0.4166666667 0.5 -0.5
0.2083333333 0.5 -0.5
5 -0.3333333333 -0.5
5 -0.1666666667 -0.5
5 0 -0.5
5 0.1666666667 -0.5
5 0.3333333333 -0.5
0.2083333333 0.3333333333 -0.5
0.4166666667 0.3333333333 -0.5
0.625 0.3333333333 -0.5
0.8333333333 0.3333333333 -0.5
1.041666667 0.3333333333 -0.5
1.25 0.3333333333 -0.5
1.458333333 0.3333333333 -0.5
1.666666667 0.3333333333 -0.5
1.875 0.3333333333 -0.5
2.083333333 0.3333333333 -0.5
2.291666667 0.3333333333 -0.5
2.5 0.3333333333 -0.5
2.708333333 0.3333333333 -0.5
2.916666667 0.3333333333 -0.5
3.125 0.3333333333 -0.5
3.333333333 0.3333333333 -0.5
3.541666667 0.3333333333 -0.5
3.75 0.3333333333 -0.5
3.958333333 0.3333333333 -0.5
4.166666667 0.3333333333 -0.5
4.375 0.3333333333 -0.5
4.583333333 0.3333333333 -0.5
4.791666667 0.3333333333 -0.5
0.2083333333 0.1666666667 -0.5
0.4166666667 0.1666666667 -0.5
0.625 0.1666666667 -0.5
0.8333333333 0.1666666667 -0.5
1.041666667 0.1666666667 -0.5
1.25 0.1666666667 -0.5
1.458333333 0.1666666667 -0.5
1.666666667 0.1666666667 -0.5
1.875 0.1666666667 -0.5
2.083333333 0.1666666667 -0.5
2.291666667 0.1666666667 -0.5
2.5 0.1666666667 -0.5
2.708333333 0.1666666667 -0.5
2.916666667 0.1666666667 -0.5
3.125 0.1666666667 -0.5
3.333333333 0.1666666667 -0.5
3.541666667 0.1666666667 -0.5
3.75 0.1666666667 -0.5
3.958333333 0.1666666667 -0.5
4.166666667 0.1666666667 -0.5
4.375 0.1666666667 -0.5
4.583333333 0.1666666667 -0.5
4.791666667 0.1666666667 -0.5
0.2083333333 0 -0.5
0.4166666667 0 -0.5
0.625 0 -0.5
0.8333333333 0 -0.5
1.041666667 0 -0.5
1.25 0 -0.5
1.458333333 0 -0.5
1.666666667 0 -0.5
1.875 0 -0.5
2.083333333 0 -0.5
2.291666667 0 -0.5
2.5 0 -0.5
2.708333333 0 -0.5
2.916666667 0 -0.5
3.125 0 -0.5
3.333333333 0 -0.5
3.541666667 0 -0.5
3.75 0 -0.5
3.958333333 0 -0.5
4.166666667 0 -0.5
4.375 0 -0.5
4.583333333 0 -0.5
4.791666667 0 -0.5
0.2083333333 -0.1666666667 -0.5
0.4166666667 -0.1666666667 -0.5
0.625 -0.1666666667 -0.5
0.8333333333 -0.1666666667 -0.5
1.041666667 -0.1666666667 -0.5
1.25 -0.1666666667 -0.5
1.458333333 -0.1666666667 -0.5
1.666666667 -0.1666666667 -0.5
1.875 -0.1666666667 -0.5
2.083333333 -0.1666666667 -0.5
2.291666667 -0.1666666667 -0.5
2.5 -0.1666666667 -0.5
2.708333333 -0.1666666667 -0.5
2.916666667 -0.1666666667 -0.5
3.125 -0.1666666667 -0.5
3.333333333 -0.1666666667 -0.5
3.541666667 -0.1666666667 -0.5
3.75 -0.1666666667 -0.5
3.958333333 -0.1666666667 -0.5
4.166666667 -0.1666666667 -0.5
4.375 -0.1666666667 -0.5
4.583333333 -0.1666666667 -0.5
4.791666667 -0.1666666667 -0.5
0.2083333333 -0.3333333333 -0.5
0.4166666667 -0.3333333333 -0.5
0.625 -0.3333333333 -0.5
0.8333333333 -0.3333333333 -0.5
1.041666667 -0.3333333333 -0.5
1.25 -0.3333333333 -0.5
1.458333333 -0.3333333333 -0.5
1.666666667 -0.3333333333 -0.5
1.875 -0.3333333333 -0.5
2.083333333 -0.3333333333 -0.5
2.291666667 -0.3333333333 -0.5
2.5 -0.3333333333 -0.5
2.708333333 -0.3333333333 -0.5
2.916666667 -0.3333333333 -0.5
3.125 -0.3333333333 -0.5
3.333333333 -0.3333333333 -0.5
3.541666667 -0.3333333333 -0.5
3.75 -0.3333333333 -0.5
3.958333333 -0.3333333333 -0.5
4.166666667 -0.3333333333 -0.5
4.375 -0.3333333333 -0.5
4.583333333 -0.3333333333 -0.5
4.791666667 -0.3333333333 -0.5
5 0.5 0.5
5 0.3333333333 0.5
5 0.1666666667 0.5
5 0 0.5
5 -0.1666666667 0.5
5 -0.3333333333 0.5
5 0.5 -0.3333333333
5 0.5 -0.1666666667
5 0.5 0
5 0.5 0.1666666667
5 0.5 0.3333333333
5 0.3333333333 0.3333333333
5 0.1666666667 0.3333333333
5 6.938893904e-18 0.3333333333
5 -0.1666666667 0.3333333333
5 -0.3333333333 0.3333333333
5 0.3333333333 0.1666666667
5 0.1666666667 0.1666666667
5 1.387778781e-17 0.1666666667
5 -0.1666666667 0.1666666667
5 -0.3333333333 0.1666666667
5 0.3333333333 0
5 0.1666666667 0
5 0 0
5 -0.1666666667 0
5 -0.3333333333 0
5 0.3333333333 -0.1666666667
5 0.1666666667 -0.1666666667
5 0 -0.1666666667
5 -0.1666666667 -0.1666666667
5 -0.3333333333 -0.1666666667
5 0.3333333333 -0.3333333333
5 0.1666666667 -0.3333333333
5 0 -0.3333333333
5 -0.1666666667 -0.3333333333
5 -0.3333333333 -0.3333333333
0.2083333333 0.5 0.5
0.4166666667 0.5 0.5
0.625 0.5 0.5
0.8333333333 0.5 0.5
1.041666667 0.5 0.5
1.25 0.5 0.5
1.458333333 0.5 0.5
1.666666667 0.5 0.5
1.875 0.5 0.5
2.083333333 0.5 0.5
2.291666667 0.5 0.5
2.5 0.5 0.5
2.708333333 0.5 0.5
2.916666667 0.5 0.5
3.125 0.5 0.5
3.333333333 0.5 0.5
3.541666667 0.5 0.5
3.75 0.5 0.5
3.958333333 0.5 0.5
4.166666667 0.5 0.5
4.375 0.5 0.5
4.583333333 0.5 0.5
4.791666667 0.5 0.5
[...]
POINT_DATA 1225
SCALARS KDE_TALLY_TAG double 1
LOOKUP_TABLE default
2.983019083 
3.048059756 
2.977506397 
3.028473007 
2.977437058 
3.026077326 
2.997142574 
3.000333974 
3.004206426 
2.986728509 
3.031515554 
3.033377301 
2.990330595 
3.050270475 
3.000916224 
3.018336906 
3.0227797 
3.039612771 
3.004056497 
3.000232719 
3.024980207 
3.036828011 
3.013242752 
3.015017654 
3.046678009 
2.998371355 
2.977477251 
3.06662705 
2.988223739 
3.054084183 
3.023314755 
3.041727215 
2.967063964 
2.984567299 
2.914439456 
3.04344358 
3.05046556 
2.985490476 
3.052033959 
3.07991168 
3.05252093 
3.054028474 
2.982109223 
2.980710729 
3.071419193 
2.961377337 
3.056407413 
3.016530402 
3.029088426 
2.168112748 
3.023156053 
2.990109049 
2.935862389 
2.909485235 
2.819718259 
2.82515307 
2.713677814 
2.676251513 
2.661992165 
2.595386835 
2.54122674 
2.506954 
2.471482438 
2.375933976 
2.370436573 
2.314614744 
2.312246874 
2.287253841 
2.231739156 
2.242193197 
2.185232333 
2.201401828 
2.15874196 
2.216779695 
2.17215543 
2.13455929 
2.139488751 
2.18051792 
2.116401191 
2.184449815 
2.162700543 
2.159909447 
2.208252971 
2.21305403 
2.246365879 
2.299947525 
2.346984553 
2.365939725 
2.390122605 
2.399898718 
2.470871251 
2.603711557 
2.597038683 
2.677477799 
2.719029304 
2.743255905 
2.796936958 
2.84796146 
2.850499947 
2.933578259 
2.97605493 
2.963247217 
3.036819099 
2.98600022 
2.953465657 
2.845166236 
2.787317885 
2.857275393 
2.741648281 
2.648388879 
2.674673615 
2.627058167 
2.496030968 
2.511090233 
2.465855184 
2.418652849 
2.378199786 
2.335049668 
2.318537879 
2.28764773 
2.248113351 
2.256380482 
2.2114364 
2.135909801 
2.183962632 
3.000065728 
2.953630152 
2.92447949 
2.861765665 
2.76187513 
2.804352323 
2.73425868 
2.656040368 
2.628298898 
2.592698482 
2.523282247 
2.485800261 
2.483219138 
2.425626802 
2.386457662 
2.34710204 
2.29311554 
2.257189029 
2.264046293 
2.236377423 
2.159223413 
2.200042107 
2.147189055 
3.01541427 
3.01251236 
2.941616496 
2.881888514 
2.832988067 
2.755158691 
2.746223112 
2.664238025 
2.577821894 
2.520148289 
2.493073781 
2.454607074 
2.44792926 
2.357396722 
2.353004365 
2.313559334 
2.300824649 
2.224716139 
2.224413431 
2.195498032 
2.199714926 
2.116597314 
2.15691884 
2.992542701 
3.011845435 
2.929269789 
2.857362292 
2.85016512 
2.791372427 
2.723578005 
2.683393243 
2.627866039 
2.532620805 
2.545786145 
2.478181046 
2.431765323 
2.366778705 
2.309519668 
2.349060461 
2.27932196 
2.291994605 
2.255034169 
2.192213625 
2.205163676 
2.180391953 
2.139897492 
3.0199738 
3.003365861 
2.889194807 
2.930156424 
2.859063439 
2.785049307 
2.761435466 
2.683726838 
2.619832072 
2.540607169 
2.498557689 
2.485507787 
2.464458594 
2.403576352 
2.35549633 
2.317405079 
2.317185571 
2.276874386 
2.217546161 
2.17248823 
2.195828039 
2.159861298 
2.146402596 
2.179305353 
2.174078944 
2.169630705 
2.170522586 
2.192842707 
2.243879644 
2.211036271 
2.278315175 
2.329316735 
2.383815356 
2.417928792 
2.390641722 
2.475473266 
2.568746425 
2.624043086 
2.639282654 
2.716339592 
2.716207145 
2.797795248 
2.828583427 
2.876936162 
2.971826741 
2.984862972 
2.961517287 
2.159415197 
2.207890199 
2.182412365 
2.161146181 
2.176163583 
2.993709322 
2.957019034 
2.929891664 
2.877997299 
2.829749298 
2.764914656 
2.789098349 
2.697564249 
2.618415111 
2.614366709 
2.502248512 
2.499255833 
2.416292417 
2.374813915 
2.407826926 
2.334658011 
2.25783038 
2.231095103 
2.252503088 
2.186654572 
2.167670195 
2.180028935 
2.141637448 
2.978709103 
2.972912809 
2.861263718 
2.88145383 
2.82995932 
2.854301159 
2.817486174 
2.697819403 
2.62642826 
2.615127083 
2.537382088 
2.468700975 
2.454102088 
2.414200826 
2.402085037 
2.367165812 
2.296202977 
2.275198673 
2.193175167 
2.18519498 
2.172746295 
2.191955189 
2.1483169 
3.016049964 
2.984822768 
2.903860966 
2.94375114 
2.923705895 
2.830818191 
2.748848478 
2.693238922 
2.660372489 
2.586516435 
2.54265618 
2.453600747 
2.442750319 
2.392239097 
2.396954432 
2.297812571 
2.257923 
2.234893364 
2.242960919 
2.183704495 
2.160293713 
2.168957945 
2.154089577 
3.012124211 
2.976241286 
2.906589861 
2.930917284 
2.838555039 
2.798092651 
2.745119763 
2.641643038 
2.694609067 
2.564342725 
2.486235723 
2.459390912 
2.456781556 
2.368156933 
2.363117453 
2.34804902 
2.266510842 
2.239983535 
2.262962429 
2.276572205 
2.204680174 
2.11584492 
2.160045118 
2.991546283 
2.951084576 
2.93047839 
2.913220804 
2.816698858 
2.831098876 
2.751735776 
2.688538342 
2.664058812 
2.582350821 
2.539317486 
2.465859457 
2.448684504 
2.432080209 
2.378330527 
2.315120659 
2.309973947 
2.29630634 
2.235301826 
2.194305318 
2.240016278 
2.15727673 
2.188833145 
2.160326752 
2.165897095 
2.129381908 
2.139446133 
2.129764899 
2.168092389 
2.123564844 
2.178478799 
2.084745105 
2.153494579 
2.170469128 
2.125097851 
2.122701642 
2.092339784 
2.199009561 
2.173827696 
2.132296956 
2.150525001 
2.132022119 
2.15519843 
2.141118577 
2.157982178 
2.172448925 
2.144417275 
2.153662605 
2.144915755 
2.145988749 
2.171897416 
2.178787321 
2.157229611 
2.178199547 
2.137173589 
2.171214971 
2.185486957 
2.224098403 
2.154828891 
3.04284208 
2.940829573 
2.901693741 
2.892113803 
2.823710369 
2.787583969 
2.719010745 
2.697736247 
2.639841105 
2.541515575 
2.542416396 
2.483664526 
2.475764255 
2.407956906 
2.338182664 
2.288717994 
2.298230764 
2.242184232 
2.205436162 
2.204048871 
2.15554737 
2.169415451 
2.154018336 
2.965544762 
2.948210593 
2.973462313 
2.835345714 
2.884080329 
2.841556373 
2.751584836 
2.692007515 
2.600279286 
2.558357851 
2.527633661 
2.444608993 
2.472762635 
2.42586471 
2.388808947 
2.332314183 
2.25944696 
2.264147057 
2.218509723 
2.19743628 
2.188475317 
2.150809974 
2.138588005 
3.002761551 
2.896800381 
2.925562822 
2.855200388 
2.825045118 
2.820875779 
2.764827928 
2.686647934 
2.64467062 
2.54227144 
2.522813461 
2.444025843 
2.452760417 
2.434498391 
2.369329559 
2.315584547 
2.277192583 
2.275126613 
2.219877358 
2.250101099 
2.173266063 
2.159317735 
2.167147792 
3.025611254 
2.923842942 
2.955916616 
2.892263958 
2.797359578 
2.76591537 
2.758015875 
2.719019602 
2.657630951 
2.581289151 
2.529328004 
2.44481071 
2.449945631 
2.481985547 
2.396718524 
2.305775797 
2.29081434 
2.25400296 
2.252719367 
2.214922617 
2.21392137 
2.119222916 
2.122813816 
3.024356436 
2.950830335 
2.925050626 
2.856215108 
2.827603798 
2.746820398 
2.744331879 
2.720663563 
2.703973753 
2.595313614 
2.543286535 
2.491804821 
2.436679311 
2.339133893 
2.32952438 
2.312072698 
2.285491897 
2.266276983 
2.246076799 
2.233243277 
2.222718886 
2.158152976 
2.165113739 
2.961001997 
2.940529303 
2.954305133 
2.875868208 
2.883660654 
2.746940979 
2.746150188 
2.698036298 
2.605897825 
2.655405076 
2.518168952 
2.527525877 
2.412990007 
2.392612028 
2.291048038 
2.271103078 
2.256660098 
2.292824419 
2.222191937 
2.210968961 
2.231843962 
2.183265776 
2.143211247 
3.019503393 
2.974962707 
2.937674968 
2.930495124 
2.824453433 
2.789011459 
2.728618031 
2.72420272 
2.639433628 
2.539400743 
2.550572312 
2.482642108 
2.453951211 
2.405606406 
2.379991887 
2.298990456 
2.281738087 
2.241067401 
2.234634474 
2.173850435 
2.20885078 
2.21313007 
2.153938594 
2.978916781 
2.90164844 
2.967903235 
2.909152576 
2.81760303 
2.779756263 
2.751827588 
2.7264237 
2.597191439 
2.572085819 
2.524135802 
2.491817258 
2.457156348 
2.364793442 
2.310460939 
2.326378617 
2.307603302 
2.262763952 
2.273635877 
2.212417014 
2.215454384 
2.182095445 
2.142117004 
2.997773178 
2.987549021 
2.937002971 
2.879452131 
2.790120121 
2.743738797 
2.706748747 
2.687582859 
2.662400401 
2.579928274 
2.530555594 
2.477853886 
2.456062276 
2.400036661 
2.348155917 
2.303852069 
2.301116198 
2.233290605 
2.235313011 
2.144188346 
2.194658857 
2.169520928 
2.175868506 
2.999184096 
3.003169703 
2.939365083 
2.874284065 
2.83627257 
2.805096526 
2.697357067 
2.668627476 
2.651375561 
2.615229249 
2.505858623 
2.46939802 
2.454980957 
2.424042906 
2.363549795 
2.278197492 
2.281932442 
2.197916474 
2.22699415 
2.184797441 
2.148635734 
2.21443928 
2.211140389 
3.035741596 
3.070729417 
2.913169268 
2.879920349 
2.826976486 
2.755202594 
2.765093664 
2.741419455 
2.632569806 
2.567684322 
2.541043222 
2.498884127 
2.446765667 
2.390553968 
2.372532929 
2.310609139 
2.231439701 
2.300747567 
2.199691762 
2.174685398 
2.143066707 
2.19124727 
2.193329768 
3.001118129 
2.946578671 
2.866896692 
2.891729967 
2.83214055 
2.840466835 
2.761653972 
2.660579915 
2.647546757 
2.58620083 
2.53456431 
2.478684615 
2.481697445 
2.422811504 
2.395912743 
2.353190223 
2.299017442 
2.250925254 
2.221466858 
2.218245616 
2.185958025 
2.151310314 
2.169868064 
2.999713254 
2.955241833 
2.984509864 
2.920947258 
2.815823066 
2.791499504 
2.714085506 
2.678793581 
2.641228416 
2.609907664 
2.511408952 
2.43351608 
2.480583002 
2.411332323 
2.403738074 
2.334141853 
2.278661803 
2.275628516 
2.261972943 
2.217838464 
2.143852502 
2.167995457 
2.180990419 
2.997877121 
2.92668978 
2.926912148 
2.8797281 
2.849910179 
2.81993124 
2.697178217 
2.723504541 
2.701654896 
2.595196375 
2.523703747 
2.480506536 
2.418123988 
2.405943616 
2.359868388 
2.295822862 
2.269590957 
2.26653558 
2.206198861 
2.139159479 
2.121447833 
2.162672182 
2.169089097 
2.980635733 
2.989198103 
2.875626866 
2.887430786 
2.860477828 
2.776416258 
2.72725446 
2.669104094 
2.636450517 
2.630386233 
2.501109263 
2.485786356 
2.405743782 
2.379262801 
2.360900913 
2.315587103 
2.309398468 
2.259516988 
2.214652418 
2.188025005 
2.151022374 
2.185858035 
2.171026178 
3.005483819 
3.004153286 
2.896397187 
2.899666146 
2.818270317 
2.753885073 
2.752979174 
2.734271198 
2.593993079 
2.616089128 
2.526540065 
2.488385294 
2.471271249 
2.396536781 
2.323474849 
2.32102506 
2.264283314 
2.260266413 
2.202067672 
2.189682851 
2.183701834 
2.206450629 
2.177980895 
3.025320212 
3.040899304 
2.973291537 
2.865526356 
2.855646981 
2.833031648 
2.759500355 
2.66898329 
2.681043084 
2.60282645 
2.547497605 
2.51375991 
2.467106049 
2.452004191 
2.361897872 
2.342123307 
2.293190066 
2.223747189 
2.233491773 
2.193808239 
2.222904226 
2.181402608 
2.181450782 
2.993397156 
2.996993775 
2.942048586 
2.848748553 
2.87853519 
2.849756241 
2.739348415 
2.728233829 
2.635918373 
2.572638855 
2.564031095 
2.459142216 
2.394612221 
2.374519494 
2.387920439 
2.322251335 
2.25476142 
2.24199023 
2.256557468 
2.225080805 
2.202286004 
2.16034266 
2.183895939 
2.991945328 
2.945300714 
2.897553921 
2.895696503 
2.849444142 
2.792576888 
2.71340017 
2.671257846 
2.620937813 
2.571999922 
2.547274125 
2.499391442 
2.427499495 
2.349069595 
2.304072867 
2.34883353 
2.296165409 
2.284833953 
2.230716847 
2.163787547 
2.157252605 
2.169311568 
2.153199349 
3.040410578 
2.995554824 
2.91100453 
2.892474618 
2.785376209 
2.785248441 
2.741805508 
2.660329452 
2.66093115 
2.577906531 
2.532244467 
2.531815147 
2.439571266 
2.381552088 
2.339051825 
2.248909384 
2.298938109 
2.301244875 
2.274141096 
2.201025742 
2.16624472 
2.176400009 
2.148499708 
3.007454785 
3.01665259 
2.956412435 
2.852503353 
2.859762665 
2.81345372 
2.794119832 
2.747268206 
2.654164486 
2.601905105 
2.485256665 
2.511278745 
2.455330639 
2.392800296 
2.326429902 
2.319969736 
2.269030305 
2.263766482 
2.235867569 
2.202655507 
2.174144167 
2.191207212 
2.20725496 
3.002421263 
2.984161661 
2.916396083 
2.820757226 
2.847053158 
2.805169904 
2.715352377 
2.671177597 
2.696631097 
2.579961499 
2.580357198 
2.555694618 
2.409774694 
2.391989826 
2.304332625 
2.320207893 
2.211654001 
2.242981446 
2.2376041 
2.177359593 
2.203232997 
2.208331733 
2.166334786 
2.974837231 
2.891660585 
2.9348692 
2.854846349 
2.791688861 
2.77325576 
2.736833587 
2.672056475 
2.636575674 
2.578403279 
2.516156705 
2.453116409 
2.442895738 
2.408488468 
2.319111561 
2.323934194 
2.26490391 
2.243467217 
2.252567728 
2.22107993 
2.161876361 
2.149779706 
2.157735696 
2.982327324 
2.979422359 
2.919062093 
2.87063776 
2.835786154 
2.776448125 
2.768858186 
2.725000369 
2.638292805 
2.619944948 
2.598549441 
2.483090473 
2.471339838 
2.401457912 
2.348417168 
2.336423098 
2.271305621 
2.231874782 
2.264916212 
2.168349839 
2.173765635 
2.139860727 
2.174346791 
3.032617759 
2.961772664 
2.942076996 
2.921599252 
2.845347103 
2.747756573 
2.783661296 
2.695360902 
2.622237976 
2.555502156 
2.567605971 
2.529756561 
2.450836059 
2.378753739 
2.313019873 
2.318018155 
2.325291764 
2.278581423 
2.204876162 
2.219700759 
2.174205361 
2.181340873 
2.126253115 
3.023361013 
2.983041547 
2.946495344 
2.885180558 
2.838157 
2.795771086 
2.785495576 
2.705041499 
2.594170421 
2.559985821 
2.545251533 
2.486592432 
2.482163484 
2.435834223 
2.379720251 
2.285776794 
2.27059627 
2.23931052 
2.25591899 
2.223775003 
2.19310902 
2.179846667 
2.173435184 
2.971696157 
2.967185022 
2.893332452 
2.853142594 
2.853242824 
2.75588614 
2.749269862 
2.680808692 
2.608199081 
2.574388115 
2.53262942 
2.532467313 
2.434584395 
2.366878085 
2.367246475 
2.300865821 
2.317428932 
2.266259501 
2.252254431 
2.229993456 
2.199753692 
2.201590475 
2.204351028 
2.99892696 
2.962477661 
2.863258524 
2.865546034 
2.8274934 
2.817587742 
2.729940137 
2.687313853 
2.678306182 
2.633693247 
2.53618051 
2.503988493 
2.433878903 
2.399923128 
2.365840309 
2.288174396 
2.308571619 
2.246219036 
2.21067183 
2.204180252 
2.146035036 
2.212708011 
2.146587273 
2.998563817 
2.987412829 
2.924810597 
2.90214405 
2.814556372 
2.803304823 
2.722994403 
2.693123664 
2.625594581 
2.592715807 
2.533889114 
2.463486032 
2.436645343 
2.370083689 
2.314402123 
2.280074306 
2.259833029 
2.227496414 
2.203366925 
2.175855881 
2.18535228 
2.152018887 
2.09884352 
3.001872076 
2.988707505 
2.932385564 
2.91255908 
2.836721188 
2.762204664 
2.707092908 
2.686147756 
2.674308656 
2.568486238 
2.593476766 
2.569539893 
2.43340672 
2.367972922 
2.39192132 
2.300653407 
2.267957153 
2.292285727 
2.261646037 
2.236511833 
2.233902316 
2.189996299 
2.149421276 
2.996533549 
2.990284456 
2.946656669 
2.843977109 
2.826914197 
2.842938499 
2.770863149 
2.680593442 
2.656592843 
2.54268832 
2.530650506 
2.50254348 
2.487716331 
2.401951712 
2.347049954 
2.335135878 
2.311217783 
2.231243334 
2.23547216 
2.227560017 
2.214195451 
2.158377324 
2.128660591 
2.999287119 
2.949676304 
2.88052998 
2.86123987 
2.826092636 
2.777587308 
2.768373066 
2.67757366 
2.607681744 
2.594437972 
2.564708658 
2.48113814 
2.458562242 
2.386439921 
2.363621805 
2.294714936 
2.270990663 
2.246870613 
2.245487736 
2.241392471 
2.175006001 
2.19215871 
2.136053503 
2.996778383 
2.969760743 
2.928999948 
2.886043018 
2.878160548 
2.82834534 
2.775932257 
2.661034358 
2.651353922 
2.618225214 
2.549009167 
2.466499201 
2.437062083 
2.386787247 
2.381890468 
2.30287091 
2.274108751 
2.271891403 
2.251376172 
2.157741779 
2.216004017 
2.20773065 
2.151483306 
3.034807943 
2.893656523 
2.891860988 
2.892395162 
2.809802287 
2.801304445 
2.713660357 
2.658912981 
2.631167866 
2.58521809 
2.535780925 
2.515046873 
2.456837323 
2.436168666 
2.361419142 
2.332913827 
2.271711578 
2.224297366 
2.248759943 
2.23207864 
2.194995594 
2.185888411 
2.128305342 
3.034453643 
3.018288898 
2.877579656 
2.873035163 
2.837392834 
2.781198443 
2.728977301 
2.710909783 
2.66615456 
2.597283094 
2.505664725 
2.474159919 
2.434117317 
2.412527477 
2.365219334 
2.338146789 
2.309121536 
2.278962331 
2.270069594 
2.212949167 
2.183524912 
2.181814699 
2.169051866 
3.001659004 
2.989955806 
2.949735142 
2.902186081 
2.842046668 
2.774965647 
2.742946309 
2.768279756 
2.599353939 
2.581631964 
2.542963541 
2.485129467 
2.450793496 
2.38852092 
2.374226052 
2.311551869 
2.295605899 
2.241806654 
2.236934729 
2.231148604 
2.200829998 
2.219914974 
2.185291668 
SCALARS KDE_ERROR_TAG double 1
LOOKUP_TABLE default
0.01073572843 
0.0105978738 
0.0107240162 
0.0107457727 
0.01074022686 
0.01059764198 
0.01064056328 
0.01069706255 
0.01070047069 
0.01051781695 
0.01060917157 
0.01057999991 
0.01071372794 
0.0105983768 
0.01071551694 
0.01060282135 
0.01062103352 
0.01070846856 
0.0106429106 
0.01067249442 
0.01059632769 
0.01062134394 
0.01062812005 
0.01062457367 
0.01063966136 
0.01070834244 
0.01061785947 
0.01057179822 
0.01058586704 
0.01059143683 
0.01062353736 
0.01059933185 
0.01067568815 
0.01058929287 
0.01068059678 
0.01055399925 
0.01056325802 
0.01059858857 
0.01060363214 
0.01051686932 
0.01053549748 
0.01053826526 
0.01059631981 
0.01059274372 
0.01052501241 
0.01074016645 
0.01053541213 
0.010638026 
0.01055616065 
0.01167268504 
0.01056383589 
0.01067363033 
0.01070617875 
0.01066939626 
0.01075903652 
0.01069821299 
0.01089938764 
0.01075976558 
0.01092708027 
0.01101060622 
0.01098671773 
0.01109362633 
0.01110335114 
0.01127148029 
0.01131346106 
0.01134461572 
0.01138923213 
0.01151172133 
0.01139323075 
0.01144848607 
0.01162400932 
0.01156660974 
0.01154212391 
0.01155431978 
0.01164579667 
0.01175790571 
0.01182703961 
0.0116512965 
0.01176753371 
0.01179235677 
0.01161048056 
0.0116958391 
0.01156915587 
0.01151280327 
0.0115376288 
0.01147069689 
0.01131935697 
0.01133680867 
0.01118561894 
0.01123951986 
0.0111472461 
0.01094793969 
0.01108123766 
0.01077063061 
0.0108303167 
0.01070563696 
0.01075949419 
0.01071832639 
0.01076606462 
0.01065500183 
0.01062366548 
0.01065258385 
0.01064634267 
0.01067124321 
0.01063997872 
0.01070273766 
0.01076284898 
0.01074212706 
0.01078196426 
0.0108753573 
0.01082560405 
0.01089586893 
0.01109093933 
0.01110471749 
0.01105286208 
0.0112023277 
0.01136417805 
0.01130673729 
0.01130804649 
0.01142282671 
0.01144644694 
0.01143369716 
0.01154653924 
0.01164001792 
0.01171949124 
0.01060125197 
0.01058314772 
0.01063963644 
0.01075945914 
0.01070545322 
0.01071369499 
0.01074121019 
0.01089664962 
0.01088079831 
0.01091752557 
0.01107747165 
0.01098875212 
0.01115951211 
0.01121411577 
0.01122410594 
0.01129063537 
0.0113781962 
0.0114691174 
0.01141544392 
0.01150322024 
0.01168816396 
0.01155200693 
0.01171651003 
0.01055652341 
0.01050487239 
0.01056428264 
0.01063859816 
0.01069569041 
0.01075428992 
0.01076514139 
0.01094587368 
0.01102038022 
0.01107352856 
0.01113177379 
0.01111503852 
0.01101792224 
0.01125144123 
0.01124790735 
0.01121295342 
0.01136844575 
0.01150520069 
0.01140048846 
0.01151946676 
0.01152547645 
0.01171997304 
0.01170876922 
0.01063707034 
0.01057477976 
0.01068305521 
0.01070779229 
0.01067109791 
0.01072321322 
0.01081497241 
0.01082437925 
0.01095505173 
0.01111676567 
0.0110197618 
0.01099510771 
0.01117208636 
0.01126069466 
0.01124441397 
0.01124719206 
0.0114578532 
0.01134225582 
0.01147178785 
0.01141057301 
0.01154671515 
0.01156644238 
0.01161248223 
0.01072166086 
0.01061526968 
0.01069296573 
0.01067399685 
0.01068214183 
0.01077564612 
0.01073509366 
0.0108439497 
0.01090827509 
0.01101628621 
0.01106884424 
0.01107030434 
0.01112211289 
0.01124576677 
0.01124665164 
0.01145632147 
0.0114243279 
0.01148563205 
0.01155286555 
0.01153422597 
0.01158027403 
0.01165133935 
0.01165952519 
0.0116624487 
0.01172391213 
0.01167325498 
0.01171889301 
0.01150552252 
0.01150637844 
0.01147500811 
0.0113780297 
0.01128123927 
0.01129384298 
0.01107729047 
0.01127002271 
0.01111111342 
0.01098212106 
0.01097452127 
0.01092948504 
0.01076539521 
0.01085964848 
0.01071156006 
0.01070755366 
0.01066860082 
0.01058774362 
0.01067222082 
0.01074585915 
0.01171519493 
0.01156762042 
0.01164829222 
0.01176680396 
0.01169380331 
0.01060277234 
0.01053858094 
0.01062538359 
0.01056447338 
0.01064521438 
0.01074242782 
0.0107484233 
0.01083617339 
0.01101280431 
0.01093958691 
0.0110884264 
0.01109036031 
0.01116150283 
0.01111850368 
0.01113275026 
0.01114964002 
0.01137165763 
0.01146482812 
0.01156125533 
0.01151373342 
0.01149652531 
0.01157158106 
0.01168881501 
0.01063909539 
0.01062686415 
0.0107261793 
0.01066188935 
0.01072220323 
0.01063246749 