# vtk DataFile Version 3.0
MOAB 4.9.0
ASCII
DATASET UNSTRUCTURED_GRID
POINTS 258 double
0.75 6.123233996e-17 -0.5
0.7880602337 0.1913417162 -0.5
0.8964466094 0.3535533906 -0.5
1.058658284 0.4619397663 -0.5
1.25 0.5 -0.5
1.441341716 0.4619397663 -0.5
1.603553391 0.3535533906 -0.5
1.711939766 0.1913417162 -0.5
1.75 0 -0.5
1.711939766 -0.1913417162 -0.5
1.603553391 -0.3535533906 -0.5
1.441341716 -0.4619397663 -0.5
1.25 -0.5 -0.5
1.058658284 -0.4619397663 -0.5
0.8964466094 -0.3535533906 -0.5
0.7880602337 -0.1913417162 -0.5
0.75 6.123233996e-17 0.5
0.7880602337 -0.1913417162 0.5
0.8964466094 -0.3535533906 0.5
1.058658284 -0.4619397663 0.5
1.25 -0.5 0.5
1.441341716 -0.4619397663 0.5
1.603553391 -0.3535533906 0.5
1.711939766 -0.1913417162 0.5
1.75 -1.224646799e-16 0.5
1.711939766 0.1913417162 0.5
1.603553391 0.3535533906 0.5
1.441341716 0.4619397663 0.5
1.25 0.5 0.5
1.058658284 0.4619397663 0.5
0.8964466094 0.3535533906 0.5
0.7880602337 0.1913417162 0.5
0.9722082135 0.4157303493 0.002296580092
1.152450547 0.4903917864 0.00243671323
1.347540777 0.4903935121 0.00253689464
1.527781394 0.4157372936 0.002540114026
1.665732365 0.2777887698 0.002540521497
1.740391794 0.09754941354 0.002540579871
1.740393466 -0.09754100763 0.002540643512
1.665737003 -0.2777818287 0.002541001128
1.527787733 -0.4157330576 0.002543068742
1.347545968 -0.4903924797 0.002554350711
1.152448599 -0.490391399 0.002612630707
0.9722201298 -0.4157383116 0.002659192129
0.8342709044 -0.2777936628 0.002689742991
0.8342762402 0.2778016478 0.002359346965
0.7596088407 0.09755260587 0.002563573088
0.7596142352 -0.09757971952 0.002712426452
0.8964471582 -0.3535539394 0.169090351
1.058663292 -0.4619418409 0.1690820167
1.250009541 -0.4999999999 0.1688957248
1.441350691 -0.4619360485 0.1688903664
1.60356038 -0.3535464012 0.1688897185
1.711943572 -0.1913325285 0.1688896432
1.75 9.972457277e-06 0.1688896315
1.71193593 0.1913509782 0.1688896009
1.60354616 0.3535606212 0.1688893733
1.441331514 0.4619439922 0.1688876413
1.249985613 0.4999999998 0.1688744265
1.058632336 0.4619290173 0.1687731682
0.8964595669 0.3535663476 0.1687526974
0.7880633942 0.1913493459 0.16876169
0.7880830198 -0.1913967174 0.1690585053
0.7500000017 4.104430722e-05 0.1687606598
0.8964359774 0.3535427582 -0.1641581878
1.058680855 0.461949115 -0.1639166172
1.250000041 0.5 -0.1638204064
1.441341702 0.4619397721 -0.1638202976
1.603553374 0.353553407 -0.163820282
1.71193976 0.1913417306 -0.163820278
1.75 -1.936919254e-08 -0.1638202673
1.71193971 -0.1913418517 -0.1638202033
1.603552973 -0.3535538087 -0.1638198145
1.44133981 -0.4619405557 -0.1638175475
1.249993621 -0.5 -0.1638055821
1.058644695 -0.4619341372 -0.1637565681
0.8964527483 -0.3535595294 -0.1637249798
0.7880672981 -0.1913587702 -0.1637004475
0.7880622009 0.1913464652 -0.1638421455
0.7500000006 -2.470078979e-05 -0.1635904718
0.8342378247 -0.2777441513 0.3349063075
0.9722624507 -0.4157665856 0.3345654839
1.152467649 -0.490395188 0.3343857138
1.347557971 -0.490390092 0.3343857138
1.527795976 -0.4157275499 0.3343857138
1.665742062 -0.277774257 0.3343857138
1.740395188 -0.09753235154 0.3343857137
1.740390092 0.09755797022 0.3343857131
1.66572755 0.2777959763 0.3343857084
1.527774248 0.415742068 0.3343856741
1.347532276 0.4903952031 0.334385439
1.152441606 0.4903900078 0.3343839095
0.9722022978 0.4157263964 0.3343745904
0.8342532871 0.2777672959 0.3343234579
0.7596005061 0.09751069872 0.3340994152
0.7595989028 -0.09750263527 0.3337582249
0.8342651938 0.2777851165 -0.3310517811
0.9722148835 0.4157348062 -0.3310517811
1.152454839 0.4903926402 -0.3310517811
1.347545161 0.4903926402 -0.3310517811
1.527785117 0.4157348062 -0.3310517811
1.665734806 0.2777851165 -0.3310517811
1.74039264 0.09754516101 -0.3310517811
1.74039264 -0.09754516101 -0.3310517811
1.665734806 -0.2777851165 -0.3310517811
1.527785117 -0.4157348062 -0.3310517811
1.347545161 -0.4903926402 -0.3310517811
1.152454839 -0.4903926402 -0.3310517811
0.9722148835 -0.4157348062 -0.3310517811
0.8342651938 -0.2777851165 -0.3310517811
0.7596073598 -0.09754516101 -0.3310517811
0.7596073598 0.09754516101 -0.3310517811
0.9536465472 0.04618786222 -0.5
1.00287455 0.2416448663 -0.5
1.190365112 0.2954670438 -0.5
1.383106432 0.3225470908 -0.5
1.504232255 0.1690736851 -0.5
1.600783524 0.0003851645617 -0.5
1.50579138 -0.1709888883 -0.5
1.385834781 -0.324582301 -0.5
1.194869128 -0.3031155981 -0.5
1.038880947 -0.2748242166 -0.5
0.9240148157 -0.1469191159 -0.5
1.139128631 0.1028748785 -0.5
1.31529403 0.1472092839 -0.5
1.416993544 -0.002601132257 -0.5
1.313355166 -0.1522756309 -0.5
1.117640405 -0.1046363503 -0.5
1.260482355 -0.00188579022 -0.5
0.969544267 -0.103031765 0.5
1.11902354 -0.2965865035 0.5
1.32262545 -0.2845687188 0.5
1.506250096 -0.2467481756 0.5
1.558201407 -0.06487002854 0.5
1.574801536 0.1288009835 0.5
1.419750895 0.247321626 0.5
1.248790887 0.3453820353 0.5
1.07741235 0.2512011627 0.5
0.9282526776 0.1271648905 0.5
1.221177455 -0.0781489964 0.5
1.402438241 -0.1260788355 0.5
1.403397072 0.0425552318 0.5
1.243096877 0.1463726497 0.5
1.087896725 0.06871158831 0.5
1.110726237 -0.1783854812 -0.1260688305
1.180900335 -0.3617390096 -0.1297549456
1.302721381 -0.1607831717 -0.1299756616
1.184965253 -0.3269213736 0.002600036561
1.114776492 -0.3375417292 -0.2453646511
1.254750609 -0.2222499549 -0.254684031
1.084648371 -0.1436516047 -0.2568347454
0.998393774 -0.2515693009 -0.2562094927
0.9526141286 -0.2004665136 -0.1247095764
1.12373817 -0.07533164322 -0.002670465037
0.979182303 -0.2527414262 0.001116487081
1.219668746 -0.04329782352 -0.1416324526
1.031049967 -0.03462633491 -0.2507101893
1.463059783 -0.09295804054 -0.3751334548
1.519749522 -0.2560150921 -0.2535970211
1.393609524 -0.191325292 -0.2536425889
1.450686216 -0.2911351323 -0.3778195977
1.55961442 0.09058718383 -0.3819922507
1.356383681 0.06429852545 -0.381075114
1.59715724 -0.08332540095 -0.3682122529
1.333341956 -0.2570513487 -0.3786284328
1.323739409 -0.09982158989 -0.3810746074
1.107296467 0.05778951943 0.04625948519
1.057627559 0.2895126641 0.03894719109
1.295029283 0.1111242175 0.004043503664
1.169355392 0.1296989918 -0.1344429255
1.258823991 -0.02876117453 -0.2584091425
1.045685053 0.1115376875 -0.2573685348
1.318246722 -0.3663766682 0.0810123235
1.324617505 -0.3617429435 -0.1297946572
1.435194612 -0.2771610022 0.002501917304
1.448141694 0.2912281156 -0.376187861
1.28753078 -0.2363646626 0.1632636636
1.05249393 -0.3068859875 0.1630217731
1.370385051 -0.3382346928 0.2756128609
1.555957556 -0.2028077841 -0.1285487562
1.470716238 -0.04473161697 -0.1297172755
1.33716619 -0.08671892434 0.002611289965
0.9178019166 0.1779746115 -0.3044440746
1.409392238 0.006994291674 -0.2486784011
1.405454278 0.1709344238 -0.1300458312
1.315573335 0.1418387443 -0.2606957257
1.208310246 0.2358512431 -0.2573568225
1.048128247 0.3057467639 -0.1299884915
1.189681768 0.3544258475 -0.1251629442
0.9465200901 0.2041444033 -0.1299400032
1.559008718 0.2041358054 -0.1298048943
0.9063692093 0.06386609375 -0.1214637384
1.11289835 0.07646874338 0.2368118316
1.230427623 -0.06584890187 0.2450127602
1.1250844 0.2058719844 0.1277487427
0.9757316709 0.2057674229 0.1408175975
1.234740853 0.1076816991 -0.3773338497
0.9423919916 0.1302056462 0.002500652801
1.307900429 0.3189432919 0.014257906
1.332107902 0.3637795448 -0.1379605532
1.545316339 -0.1836313903 0.2748921216
1.141560793 0.02025646344 -0.377948761
1.198088408 -0.1004378721 -0.3843638003
1.457392097 -0.3067452013 -0.1298030615
1.579908967 -0.1344098002 -0.2470857203
1.393692374 -0.3407376111 -0.2523858845
0.9925704598 -0.07078426331 -0.3809494972
0.9109605551 -0.1435008198 -0.2568955719
0.8823785186 -0.06175342947 0.2755190432
1.107759356 -0.2652493715 -0.3863215744
1.433598161 0.1606344134 -0.3176989853
1.323204875 0.2314005941 -0.3767154813
1.393694043 0.339744091 -0.252387464
1.513170719 0.2599122524 -0.252387464
1.593002558 0.1404356062 -0.252387464
1.485204101 0.2051517814 0.007528511342
0.8806242943 -0.0003862817539 -0.2876097858
1.089953184 0.3385726213 -0.2503696978
1.097685695 0.1805505008 -0.3752900362
1.279925466 0.1956330538 0.1856170446
1.024204493 0.2782453895 0.2797117531
1.094741464 -0.02633588016 0.359169066
1.02127564 -0.1357502192 0.172901988
1.150694132 0.1877027154 0.3631866574
1.25400877 0.06956776232 0.3707508147
0.8926460147 0.04558301717 0.139582634
0.9150899649 -0.08285105228 0.01866657659
1.45169723 -0.0904860273 0.183638975
0.8871197701 0.1422901452 0.2529987395
1.251380801 0.3743831515 -0.3230782151
1.448141813 0.2943475842 0.1189035922
1.408147931 0.131603092 0.2450286895
1.255379677 -0.3677121699 -0.2590662837
1.612716913 0.003341748146 -0.2511408031
1.415024281 -0.2347097844 0.3929045498
1.576917887 0.06502569467 0.002569311066
1.6140064 0.07136286795 -0.1298047751
1.455141664 0.299726963 -0.1241403967
1.614007592 -0.07234994322 -0.1298047751
1.544225335 -0.09754872322 0.002575000981
0.8947383761 -0.07792990655 -0.1320438683
1.054858088 -0.311914295 -0.1265496314
1.519383192 0.2432414293 0.3863367438
1.487622976 0.007540776394 0.3756693006
1.615386844 0.1126664355 0.2205646038
1.44007194 0.3188075125 0.275698334
1.349395394 0.1794255376 0.3748820722
1.169570088 0.3542713225 0.1253354698
0.9663605094 0.09014400095 0.318944186
1.151343107 -0.2010613531 0.3283568025
1.35607779 -0.08318732679 0.3707523346
0.9927636385 -0.2043811679 0.3867866397
1.561081648 0.1972554475 0.1491530538
1.558960676 -0.2298330963 0.1220229268
1.615685821 -0.09288331121 0.1220226735
1.278325319 0.3606494665 0.3337435126
1.314012647 0.3798172474 0.1701941043
1.180632591 -0.3664267361 0.3194567859
CELLS 1041 5205
4 144 145 146 147
4 144 145 148 149
4 144 150 151 152
4 144 150 148 151
4 144 153 152 154
4 144 149 148 150
4 144 155 150 156
4 144 146 149 155
4 157 158 159 160
4 125 157 161 162
4 117 161 157 163
4 126 164 157 165
4 117 157 118 163
4 125 126 157 165
4 166 167 168 169
4 156 169 170 171
4 147 172 173 174
4 41 173 172 174
4 51 41 172 174
4 6 116 101 175
4 50 176 172 177
4 147 172 176 177
4 50 41 147 172
4 50 41 42 147
[...]
POINT_DATA 258
SCALARS KDE_TALLY_TAG double 1
LOOKUP_TABLE default
0.9205280743 
0.9284673806 
0.8921345427 
0.8339175868 
0.8900769378 
0.7675820144 
0.7588302565 
0.7768405596 
0.6813128733 
0.6213656248 
0.7540122043 
0.8111293202 
0.8467535074 
0.8729243032 
0.9416376328 
0.906506163 
0.7798801454 
0.8548418815 
0.904955832 
0.7938406325 
0.7600252362 
0.7239817773 
0.7012215072 
0.7085009753 
0.6616857129 
0.762411624 
0.7007648854 
0.733528035 
0.7696615793 
0.8985715866 
0.7909348417 
0.8699024271 
0.6569293423 
0.693890027 
0.6446602057 
0.5971621846 
0.6402846183 
0.7504427367 
0.6693375467 
0.5549805487 
0.5948269444 
0.7176842273 
0.7016619656 
0.7079379697 
0.767362826 
0.8110835445 
0.7579760662 
0.8293849021 
0.6864795298 
0.7239269594 
0.6967244575 
0.6141573576 
0.5974975895 
0.6145800777 
0.6665018466 
0.6710964337 
0.6420471883 
0.7504727535 
0.7304017573 
0.6802886285 
0.7964678203 
0.7378843038 
0.807083099 
0.771290772 
0.8275941964 
0.7020307289 
0.5940294674 
0.6018683553 
0.6406592382 
0.6465243101 
0.634478561 
0.6572907212 
0.6913353129 
0.7472769567 
0.7518751175 
0.8401044345 
0.7595408132 
0.8191762595 
0.7533863545 
0.7773579243 
0.6971670207 
0.7077731028 
0.7353580863 
0.7991585915 
0.6475330756 
0.7172981901 
0.5527457468 
0.6258337478 
0.6119989164 
0.6677486785 
0.6374036387 
0.6946021611 
0.7282273476 
0.7881446328 
0.7774519281 
0.8130334629 
0.8359371311 
0.7989078479 
0.7316301108 
0.6915875766 
0.7222428106 
0.6529492943 
0.5520834529 
0.5437459063 
0.6286539349 
0.7096601025 
0.7828916822 
0.8428123156 
0.8670372193 
0.7723843215 
0.7669011852 
0.7758697456 
0.6629736899 
0.6977079044 
0.6252236287 
0.676950817 
0.6156257948 
0.5964196595 
0.5204083566 
0.6289352863 
0.765624378 
0.8274279566 
0.6690953546 
0.7577540726 
0.6858270572 
0.6622078279 
0.6606839568 
0.7706891896 
0.6872217735 
0.7272832526 
0.7437290323 
0.7022876759 
0.6275394595 
0.6678401542 
0.6287761703 
0.6338850638 
0.66361561 
0.7167398836 
0.7176003497 
0.6112715446 
0.6242703499 
0.6185362657 
0.6812516663 
0.7451205032 
0.5871549674 
0.5480330559 
0.5837534379 
0.5807577019 
0.6442757378 
0.5610675633 
0.5912139603 
0.7063741742 
0.5897200388 
0.6053699558 
0.599906119 
0.6017687722 
0.4878458963 
0.5109234331 
0.6519039314 
0.5263224132 
0.5723475322 
0.3931965596 
0.4989630914 
0.4406107015 
0.5214586811 
0.5727920495 
0.5403326796 
0.6030332177 
0.5741747679 
0.4893538323 
0.5317113737 
0.5536504534 
0.5626241924 
0.5199224947 
0.4330801932 
0.5361576413 
0.6089311049 
0.5973056045 
0.631367772 
0.5660882292 
0.5145773605 
0.4674028101 
0.6019871546 
0.4704232011 
0.5240636208 
0.5511478972 
0.5045145816 
0.6580327718 
0.5369841986 
0.5888385929 
0.5314012186 
0.6799458779 
0.475907913 
0.5895419829 
0.5118947672 
0.6347192911 
0.5726620822 
0.5024983322 
0.4747095182 
0.5477149937 
0.533122884 
0.6597105962 
0.638980384 
0.5926700174 
0.5635165906 
0.6052635952 
0.6226846953 
0.6579277175 
0.72413502 
0.6025887209 
0.5869312519 
0.5119939291 
0.4969217427 
0.5677529757 
0.4786522298 
0.5986709346 
0.6384884605 
0.6867483135 
0.5349601622 
0.4734460972 
0.5671729353 
0.4753485104 
0.5047529272 
0.664330576 
0.614879829 
0.6088181594 
0.6367521447 
0.516619618 
0.5843709168 
0.5880969163 
0.588731364 
0.4757553949 
0.6780030281 
0.557214191 
0.5958340377 
0.5783447326 
0.5495478805 
0.6507300378 
0.4725122595 
0.5556900576 
0.5928945294 
0.5505493128 
0.5558592523 
0.6511562604 
0.4341647065 
0.5639020429 
0.5246718132 
0.6780283676 
0.6174441161 
0.4657861663 
0.4419803847 
0.666391283 
0.5641367811 
0.4548574237 
0.4718359199 
0.51059735 
0.5176643682 
0.6686270676 
SCALARS KDE_ERROR_TAG double 1
LOOKUP_TABLE default
0.06107920996 
0.06063162326 
0.05920862447 
0.05732564498 
0.05869606838 
0.06301723467 
0.06606108222 
0.07313189262 
0.06540425723 
0.06412637613 
0.06549242724 
0.06233467876 
0.05798531719 
0.06349016619 
0.06044143235 
0.06642218654 
0.06112709155 
0.05139954391 
0.05747951861 
0.06363789761 
0.05493703516 
0.06257051159 
0.06355757333 
0.06711417971 
0.07425211234 
0.06093467875 
0.06818071335 
0.05754458098 
0.05542143611 
0.05671032469 
0.0594927182 
0.05767534134 
0.07040955268 
0.07389754128 
0.07411451809 
0.09363621878 
0.08426550547 
0.09429034857 
0.0839245834 
0.08843385673 
0.07971915135 
0.07422247262 
0.06544635386 
0.07201789294 
0.07894019163 
0.07309348389 
0.07659761736 
0.07560783165 
0.07562394184 
0.07098095168 
0.07290445803 
0.08133727867 
0.07334458335 
0.08480969979 
0.08930897565 
0.09940884875 
0.09036556114 
0.08397213739 
0.07012103373 
0.07123894683 
0.06979410956 
0.07132401566 
0.08179191105 
0.07138522524 
0.07355430128 
0.06558459647 
0.06699907274 
0.06949269871 
0.09427680059 
0.09530480215 
0.08556676484 
0.0910960716 
0.08441424571 
0.07393084028 
0.06227733356 
0.07489276524 
0.068989563 
0.0709713917 
0.07000005028 
0.07431030355 
0.07677214859 
0.0726422005 
0.0763774136 
0.07601902371 
0.08178310944 
0.07845299737 
0.08306955506 
0.08876997926 
0.08226994632 
0.08038897554 
0.07330742845 
0.07310541187 
0.08283610686 
0.07834914265 
0.0707016258 
0.07337057849 
0.0738138968 
0.07102381906 
0.07015623746 
0.07890574452 
0.08784078511 
0.08484583462 
0.0918686096 
0.08576431757 
0.08425709272 
0.07992651063 
0.0712453354 
0.07260073843 
0.0776080239 
0.07139379004 
0.07077398336 
0.06962617251 
0.0894869052 
0.07282788649 
0.08361666277 
0.09205340233 
0.09020230419 
0.07435939702 
0.08772446846 
0.07939418926 
0.07985408487 
0.07965909063 
0.07768928594 
0.07956261601 
0.0792305778 
0.08123800663 
0.09239313169 
0.0885628547 
0.08563128426 
0.07948698699 
0.07824935566 
0.07755427098 
0.08408498255 
0.09051456932 
0.08302792496 
0.09023313918 
0.08388768771 
0.07998347261 
0.07999655716 
0.08631694264 
0.09082506705 
0.1036944595 
0.08175668289 
0.08351263502 
0.1295201443 
0.1294078366 
0.1261261209 
0.1258366158 
0.128474841 
0.1246431158 
0.1118459635 
0.1230664682 
0.1298876489 
0.1267496976 
0.124279117 
0.1297881221 
0.1433716506 
0.1232493899 
0.1204055466 
0.1271626274 
0.1245437243 
0.1487020398 
0.1413405333 
0.1345328295 
0.1241297313 
0.1156569251 
0.1199039486 
0.1290902416 
0.1289827612 
0.1401714336 
0.1342105436 
0.135010028 
0.1408661392 
0.1347087627 
0.1372820577 
0.1223767305 
0.1256371986 
0.1176170506 
0.1192798457 
0.1283741969 
0.1398222542 
0.1228242891 
0.1176956193 
0.1292769955 
0.1328383636 
0.135225976 
0.1281726382 
0.1204366616 
0.1337685266 
0.1241513157 
0.1294887836 
0.1087233893 
0.1363678019 
0.1427407 
0.1225662633 
0.1158993167 
0.1214333043 
0.1289461521 
0.1323514664 
0.1374364896 
0.1450956488 
0.1293713116 
0.1110178795 
0.1254409451 
0.122587806 
0.1258462849 
0.1136665783 
0.1098808358 
0.108795178 
0.1264479587 
0.1274821054 
0.1300662667 
0.1273929901 
0.1219325348 
0.1278952439 
0.1281540197 
0.1157420853 
0.1129098763 
0.1277882476 
0.1273248688 
0.1251654942 
0.1307435552 
0.1230215883 
0.1155629122 
0.1234640928 
0.1198538682 
0.1148105393 
0.1285621617 
0.1142479227 
0.1312377089 
0.1297384248 
0.1313842591 
0.1167619477 
0.1302880343 
0.118876044 
0.1314822229 
0.1308629508 
0.1234969617 
0.1322636482 
0.1272255518 
0.1223783775 
0.1436157754 
0.1270338533 
0.1167186593 
0.1338231143 
0.1232952539 
0.1282673815 
0.1181197502 
0.1221334402 
0.1349527037 
0.1391308754 
0.1155181648 
0.136812602 
0.1268658201 
0.1303825217 
0.1377970337 
0.128995008 
0.1210330743 
