# vtk DataFile Version 3.0
MOAB 4.9.0
ASCII
DATASET UNSTRUCTURED_GRID
POINTS 246 double
-6.123233996e-18 -7.498798913e-34 0.1
-0.03243642024 -3.972315822e-18 0.09459322725
-0.01621821012 -0.02809076394 0.09459322725
0.01621821012 -0.02809076394 0.09459322725
0.03243642024 -1.440466424e-17 0.09459322725
0.01621821012 0.02809076394 0.09459322725
-0.01621821012 0.02809076394 0.09459322725
-6.123233996e-18 -7.498798913e-34 -0.1
-0.03243642024 -3.972315822e-18 -0.09459322725
-0.01621821012 -0.02809076394 -0.09459322725
0.01621821012 -0.02809076394 -0.09459322725
0.03243642024 -1.440466424e-17 -0.09459322725
0.01621821012 0.02809076394 -0.09459322725
-0.01621821012 0.02809076394 -0.09459322725
0.01547016054 0.09835261846 -0.009350752607
-0.01971855331 0.09733815375 -0.01168171562
0.0876958207 0.04537858369 -0.01581857052
0.06757705269 0.07363082302 -0.003441489509
0.08419750215 -0.05118605353 -0.01705193702
0.09818909979 -0.01806627991 -0.005701772726
0.0005276322263 -0.09839582394 -0.01783209006
0.03542289203 -0.09329989008 -0.006352104534
-0.07888736839 -0.0597090123 -0.01454706011
-0.05715372654 -0.08166150795 -0.008052928762
-0.08560662811 0.04930623267 -0.01550485868
-0.07563928939 -0.06482092876 0.008771835369
-0.09414441117 -0.03327804066 0.005422347719
0.006282842776 -0.09856402613 0.01567350121
-0.02789535729 -0.09596283852 0.003603146572
0.0873260941 -0.04579936867 0.01663042749
0.06609368181 -0.07485788027 0.005284220548
0.08461245304 0.05026937044 0.01771223266
0.09821640599 0.01783946988 0.005940615173
0.004059277285 0.09837806246 0.01747223782
0.03889231695 0.09168161001 0.009048208046
-0.09893675723 0.01435652162 0.002325587392
-0.08423300313 0.05118656742 0.016874137
-0.06033763131 0.07972519999 -0.001806304171
0.04227465584 0.08763456838 -0.0230875702
0.09543976222 0.01147533226 -0.027560271
0.05890403091 -0.07577720407 -0.02807366178
-0.03295062122 -0.08997422099 -0.02861636101
-0.04295212651 0.08510538891 -0.03020244371
-0.09668934844 -0.01035548164 -0.02332239049
-0.05320802697 -0.08153352756 0.02282958059
0.03930568789 -0.08785155322 0.02715082864
0.09539950001 -0.01157624308 0.0276572955
0.0600939473 0.0744374616 0.02911669296
-0.09556026081 -0.005894312882 0.02887028974
-0.03182919452 0.09165545826 0.02421114097
0.01119535965 0.09251917025 -0.03626109567
-0.01747600144 0.08728786793 -0.04555675017
0.08059732993 0.03645534955 -0.0466377304
0.06599771667 0.06576885475 -0.03631472345
0.07219171459 -0.05037555889 -0.04744111521
0.08968580873 -0.02213955868 -0.03829224012
-0.00588699976 -0.08768944577 -0.04770643914
0.02708201545 -0.0881492116 -0.03868179072
-0.08383535927 -0.0396466659 -0.0374135593
-0.06109961625 -0.07000545609 -0.03696042494
-0.06504040385 0.0670446606 -0.03570377224
-0.07873320219 0.04372823689 -0.04346175526
-0.0920782782 0.01997370245 -0.03350584866
-0.07453876432 -0.05705933209 0.03447035298
-0.08501161518 -0.02949256266 0.04362584134
0.00995730466 -0.08804760466 0.0463516062
-0.02267226951 -0.09047549197 0.03605764202
0.0804562546 -0.03617523066 0.04709717383
0.06518075246 -0.06568168294 0.03791287426
0.07242899638 0.04978160539 0.0477056836
0.08970908097 0.02196923344 0.03833580016
-0.00460693945 0.08827624967 0.04675553286
0.02870419161 0.0873830428 0.03924631468
-0.09006395747 0.02343479211 0.03659636708
-0.0757241954 0.04736277859 0.0449734748
-0.06040544959 0.07153291418 0.03513152216
0.03754202322 0.07594791914 -0.05312730061
0.08226353182 0.005021415614 -0.05663476598
0.04623852144 -0.06802437485 -0.05687427856
-0.03520074947 -0.07470975181 -0.05638581578
-0.04125009224 0.07190635788 -0.05592768176
-0.08482577824 -0.006414279289 -0.05256847313
-0.04660875287 -0.07115270794 0.0525824715
0.03783642044 -0.07343739435 0.05635028305
0.08224638412 -0.004961788806 0.05666491816
0.04676856871 0.06741535303 0.05716529679
-0.08295059398 -0.0005683608383 0.05584689717
-0.03408526915 0.0760892767 0.05521427712
0.007763978133 0.07662178096 -0.06378732888
-0.01747223667 0.07114511403 -0.06806683256
0.06775051404 0.02593991392 -0.06882578523
0.05690513902 0.0513570334 -0.06422040387
0.05618709334 -0.04531063376 -0.06920951532
0.07206794677 -0.02316627164 -0.06534167817
-0.01085679639 -0.07141311727 -0.06915415138
0.01662956529 -0.07379168628 -0.06540829147
-0.07064095094 -0.02710277102 -0.06538574656
-0.05799270025 -0.05190487228 -0.06279116938
-0.05934487659 0.04984609112 -0.06319456323
-0.07467790993 0.02286712029 -0.06245241851
-0.06274871039 -0.04572623189 0.06302151269
-0.07053953744 -0.02104798992 0.06768423581
0.01221084432 -0.0717312666 0.06859679784
-0.01546537193 -0.07531951919 0.06393584519
0.06780740963 -0.02531171271 0.06900342309
0.05692387601 -0.05013560761 0.06516205329
0.0563161001 0.0450682113 0.06926292803
0.07202876269 0.02319714248 0.0653739239
-0.0101113208 0.07194054358 0.06871913402
0.01715996202 0.07369354731 0.06538193014
-0.07204124635 0.02654389949 0.06407402144
-0.05547412372 0.0534619235 0.0637529947
0.02848192597 0.05545376588 -0.0781898954
0.06048748882 0.001786690736 -0.07961200558
0.03194875689 -0.05133583058 -0.07964866246
-0.02932320971 -0.05358543081 -0.07917544428
-0.03234592929 0.05223274459 -0.07890171894
-0.06263721002 -0.001791769094 -0.07793182588
-0.03365807569 -0.05277929974 0.07798384102
0.02920911986 -0.05322645094 0.07945924891
0.06056928671 -0.00146162235 0.07955642757
0.03197816829 0.05120617154 0.0797202907
-0.06120210575 0.001644932248 0.07906703769
-0.02851081907 0.05413813564 0.07909611537
-0.0018131494 0.05408957217 -0.08408942069
0.04536029995 0.02872880238 -0.08436290122
0.04695697724 -0.02511958157 -0.08464070481
0.001634969437 -0.05324240714 -0.08463198542
-0.04686022246 -0.0284040912 -0.08365002782
-0.04860579694 0.02663026128 -0.08323644447
-0.04777452175 -0.0258029055 0.08397502688
-0.001922389451 -0.05386986768 0.08422791565
0.04546056483 -0.02789306049 0.08458909044
0.04694889166 0.02510192668 0.08465042734
0.001986128465 0.05330429492 0.08458550371
-0.04663826996 0.02872355311 0.08366498235
-0.02282793075 0.01286946982 -0.002673310228
-0.04798640683 0.03352741525 -0.02417912707
-0.04870273918 0.006351385266 0.01568228193
-0.05637349933 0.0276890099 0.01893514022
-0.02854210511 -0.01385851018 -0.0347779803
-0.03228688985 -0.02609728277 0.002476249589
-0.04440842569 -0.01166947559 -0.01283575781
0.004479460418 -0.007190402132 -0.0147408545
-0.02441293746 -0.008205925114 0.02206681669
-0.01095508225 0.00198810827 -0.04743557796
0.003991114441 0.01973241381 -0.02457443811
0.01149600651 -0.006411617622 0.02666788176
0.001481711632 0.03000740707 -0.0004877392203
-0.02247146331 0.02908192575 -0.02586631291
-0.02098319679 0.05690923333 -0.00228618132
0.05150577053 0.04995335639 0.03325561062
0.05299882963 0.03065340221 0.01440812089
0.05234706774 0.01534296293 0.03539848328
0.0481092222 0.03107895702 0.05612023175
0.01177306753 0.01681108586 0.074662745
0.04731721058 0.0006938430015 0.05572739989
0.01519113686 0.02789174765 0.04053900018
0.02509679273 0.01660263352 0.003337853821
0.04770726338 0.005253662355 -0.01002200786
0.0323748216 -0.001167921349 -0.02947445028
0.02936366946 -0.02719111182 -0.002031298354
0.009098126553 0.05580539256 -0.01687132195
0.02869984694 0.05573172495 -0.0004583919363
0.01898772456 0.05681260675 0.02975889482
0.0320090726 0.02615521103 -0.02231494896
-0.01329190377 0.0249644015 0.05110966787
0.0151489554 0.05201603845 0.05585144088
0.03132529929 -0.02502749115 0.0290385019
-0.04896108806 0.02834210917 0.04690485075
0.06382040679 -0.01242560148 0.002823941177
0.03890410811 0.05808593333 -0.02943830006
-0.01977338269 0.002844503149 -0.07386638224
-0.04250101373 0.003854500363 -0.06069399789
-0.02854055166 0.0310341455 0.02154579945
-0.06246769801 -0.0207284335 0.01668315008
-0.06350198388 -0.02984000556 -0.01038052328
0.004347859416 -0.03492434695 0.02360840514
0.0009003796731 -0.03445438668 -0.005034737289
-0.02175788581 -0.04299234971 0.02117132582
0.05479595438 -0.00668191351 -0.05588984117
0.03598235175 0.00630366616 -0.07357901335
0.04287989065 -0.02178665623 -0.05681109801
-0.04825285822 -0.05059468001 -0.01692320034
-0.04033468664 -0.0596101433 0.001544520142
-0.06017272919 -0.04068736732 0.00815715827
-0.05814533681 -0.01534592919 -0.04588438198
-0.05137125775 -0.02776108868 0.03713249043
-0.02558045648 -0.02119847201 0.05471588299
-0.008960628882 -0.02471181564 -0.07271003723
-0.07308016717 -0.0001625518926 0.010648733
-0.05715209618 0.00778461108 -0.02831301279
-0.05583681539 -0.03967631981 -0.03747076169
-0.07258308679 0.02066479996 -0.01306351833
0.0767038092 0.02168761939 -0.01090869866
0.07471755147 0.00084081979 -0.02891385555
0.07443393767 0.007299779914 0.01911307126
0.05704182759 0.0296717789 -0.03096355125
0.05527051911 0.04949158803 -0.0002189098741
0.01891193353 -0.007207534742 -0.06307421625
0.02461641096 -0.02464610338 -0.06925480813
0.04845886305 0.01870248839 -0.05152639747
0.06476356834 -0.02473041415 -0.03017002344
0.006899569649 0.01881911978 -0.06080436707
0.00497916108 -0.03621377051 0.05442332104
-0.06078300253 0.005526196677 0.04126093909
0.02585137635 -0.02869295701 -0.03283547983
0.02513558418 -0.05494163185 0.02384067886
0.01277762745 -0.06476871669 -0.01495761424
-0.01395403221 0.05585958436 0.04349949956
0.06407764554 -0.02350669168 0.03797816113
0.05720615387 -0.03559944779 -0.01307109278
0.04984171316 -0.03940985352 0.01251307689
0.03215438128 -0.07245203108 0.00840164721
0.0340824537 -0.0660764128 -0.0196915064
-0.04889683053 -0.02044910938 0.06047713384
-0.0263545122 0.01281150896 0.0723432824
-0.06831377745 -0.0121443551 0.04398301616
-0.02486981079 -0.048131302 0.05403076857
-0.04013013095 -0.0425873287 -0.04831316695
-0.035825748 0.05837452412 -0.03684808314
-0.008272908628 0.0725325942 -0.01995029673
-0.005461244844 0.04912930354 -0.05200510845
-0.02418059856 0.03346373886 -0.06182688475
0.003312927438 0.07628174126 0.004352529533
-0.0005201889435 -0.0683215335 0.01194876339
0.01336925197 -0.06061935425 0.0492406711
[...]
POINT_DATA 246
SCALARS KDE_TALLY_TAG double 1
LOOKUP_TABLE default
4.660882927 
4.144048878 
4.172051091 
4.558679196 
4.181952709 
4.339641766 
4.372850925 
4.325588299 
4.304814684 
4.275418359 
4.265367771 
4.297679349 
4.169122624 
4.404958721 
4.568156089 
4.227568588 
4.506926193 
4.340363314 
4.809506919 
4.18758786 
4.275124731 
4.341137191 
4.482367141 
4.367658284 
4.258778483 
4.203253734 
4.530140676 
4.800588272 
4.296704131 
4.34132438 
4.150744197 
4.463737413 
4.655203046 
4.343225807 
4.59169678 
4.511667843 
4.203207867 
4.25268299 
4.483102756 
4.609584336 
4.178388773 
4.54349783 
4.34681325 
4.274011857 
4.683213624 
4.739632342 
4.291669229 
4.341894438 
4.309124128 
4.434835021 
4.094187127 
4.375460429 
4.33975229 
4.222412982 
4.549263551 
4.460632259 
4.544026217 
4.297976051 
4.176728613 
4.338439779 
4.393770462 
4.434042203 
4.499727523 
4.449952903 
4.672474805 
4.408940641 
4.380488383 
4.369422844 
4.137615023 
4.424668373 
4.389680949 
3.978928561 
4.585597638 
4.510281979 
4.178616729 
4.313860908 
4.352756928 
4.141356046 
4.31486768 
4.392301451 
4.535465165 
4.390127697 
4.44563473 
4.442787421 
4.483494444 
4.498430056 
4.528648016 
4.461220853 
4.409492215 
4.421997208 
4.498414966 
4.141448423 
4.415100795 
4.612507717 
4.416753392 
4.372329057 
4.381421068 
4.463917471 
4.246204598 
4.392904536 
4.665721401 
4.269749021 
4.273134338 
4.445905924 
4.301117211 
3.920753338 
4.332833226 
4.512188531 
4.326523266 
4.320830665 
4.394171715 
4.423206353 
4.594900907 
4.534625502 
4.387624685 
4.186184234 
4.522691701 
4.705739752 
4.375208935 
4.538012327 
4.586010505 
4.201816682 
4.42112799 
4.160390314 
4.426418956 
4.332917781 
4.58252441 
4.215656953 
4.50632775 
4.368815523 
4.401434967 
4.460558402 
4.4408255 
4.252279759 
4.507493858 
4.419078981 
5.5736918 
5.053754287 
5.210284543 
5.248638891 
5.07913158 
5.415649715 
5.615624968 
5.579316277 
5.616637469 
5.379923919 
5.847501882 
5.528051942 
5.536864326 
5.569963887 
5.461300844 
5.127317845 
4.969983355 
5.65529224 
4.937639649 
4.870081424 
5.144551429 
5.638006088 
5.477383127 
5.336525665 
5.712673689 
5.201027446 
5.403588632 
5.493763476 
5.250917288 
5.151069707 
5.20904085 
4.98134146 
5.494862722 
4.893876603 
5.247932968 
5.149070318 
5.234424054 
4.805962778 
5.327611275 
5.377798335 
5.227709992 
5.283205074 
5.48628871 
5.489216936 
5.035164904 
5.071122281 
4.823336191 
5.073083799 
5.086215668 
5.042466109 
5.001621779 
4.992362897 
5.528092079 
5.036086466 
5.240761529 
5.194786733 
5.099696541 
5.0428547 
5.028232238 
4.891657479 
5.32682072 
5.266848229 
4.934257572 
5.148548548 
4.861610738 
5.393275676 
4.895030969 
5.207383591 
5.06581926 
5.37692212 
5.469033785 
5.436858678 
5.247195446 
5.293337636 
5.028241974 
5.186355044 
5.166802948 
5.139960164 
5.209692766 
5.133850802 
5.209411725 
5.167867983 
5.000576066 
5.003870549 
5.065463472 
5.108391767 
5.155649839 
5.056489189 
5.074280789 
5.239790083 
4.921360603 
5.587499806 
5.407714491 
5.236785038 
5.269568044 
5.276335824 
5.251575263 
4.743575208 
5.129152066 
4.807756044 
5.330014956 
4.841283323 
5.205664231 
5.249480698 
5.291733848 
5.076844151 
4.728426605 
5.075675933 
4.970610925 
5.260886848 
SCALARS KDE_ERROR_TAG double 1
LOOKUP_TABLE default
0.03743642129 
0.03843663035 
0.03814349806 
0.03741745885 
0.03854009375 
0.03807501875 
0.03797220519 
0.0378543463 
0.03790610576 
0.038141625 
0.03807931718 
0.03794694994 
0.03894141346 
0.03753156502 
0.0376771323 
0.03856706321 
0.03750672772 
0.03808406736 
0.03607686463 
0.03857093513 
0.03808518789 
0.03802919982 
0.03709618576 
0.03763664417 
0.03818401188 
0.0381318943 
0.03737694225 
0.0365633716 
0.03805141244 
0.03783809044 
0.03875409377 
0.03765727224 
0.0372391555 
0.03805151906 
0.03719845474 
0.03702919282 
0.03841232355 
0.03867979168 
0.03845489571 
0.03693326168 
0.03821385774 
0.03675208603 
0.03780766939 
0.03823585925 
0.03711848234 
0.03653482415 
0.03784761928 
0.03763931469 
0.03829809158 
0.03687045354 
0.03881343935 
0.03785976665 
0.0381150767 
0.03796019049 
0.03741479983 
0.03800685124 
0.03697885668 
0.03802794845 
0.03807200408 
0.03775816299 
0.03776065538 
0.03805705722 
0.03712176106 
0.03793872568 
0.03735637567 
0.0375137256 
0.03741138311 
0.03816117039 
0.03840610339 
0.03762803482 
0.03783090904 
0.03952568099 
0.03753240829 
0.03763254892 
0.03811028494 
0.03798940504 
0.03804909384 
0.03913063591 
0.03759194011 
0.03751907564 
0.03790160308 
0.03736939376 
0.03731924192 
0.03768287884 
0.03785467395 
0.03746217022 
0.03703803897 
0.03777232151 
0.03756997376 
0.03791414501 
0.03735452204 
0.03887074462 
0.03785670045 
0.03713107896 
0.03770412947 
0.03778900383 
0.03753523932 
0.03776262798 
0.03893225153 
0.03794918022 
0.0372520328 
0.03824263303 
0.03838737673 
0.03820375524 
0.03817491359 
0.03998134073 
0.03839610994 
0.03715634263 
0.03803260588 
0.03824828603 
0.03801366108 
0.03820595215 
0.03708322443 
0.0373399513 
0.03809401589 
0.03861491099 
0.0367881353 
0.03699367277 
0.03793519509 
0.03749591717 
0.03740894548 
0.03829227224 
0.03779149486 
0.03860335144 
0.03768098726 
0.03781096908 
0.03770270243 
0.0379531228 
0.03736148074 
0.0381552802 
0.03754197775 
0.03833746425 
0.03769714911 
0.03846530145 
0.03714635107 
0.03782666381 
0.03359889926 
0.03506081243 
0.0350075742 
0.03492362838 
0.03534932205 
0.03422935964 
0.03376205659 
0.03401177458 
0.03391710173 
0.03458604529 
0.03293487477 
0.03384216276 
0.03350537737 
0.03400914127 
0.03392773568 
0.03578831876 
0.03559652947 
0.03356304044 
0.03570005603 
0.03614286414 
0.03511463933 
0.03402092744 
0.03351680002 
0.03420374125 
0.03369306792 
0.03522899519 
0.03429152498 
0.03391225642 
0.03469493296 
0.03466188011 
0.03446789625 
0.03552844103 
0.03457219275 
0.03612358929 
0.03417776613 
0.03501819679 
0.03537265988 
0.03580121993 
0.03433508082 
0.03507470521 
0.03448140952 
0.03476991759 
0.03384098233 
0.03422524767 
0.03538207897 
0.0359616558 
0.03587928637 
0.0351462168 
0.0352732771 
0.03568994882 
0.03514977007 
0.03566275586 
0.03370539432 
0.03568669176 
0.03454051652 
0.03410001185 
0.03522130357 
0.03522397026 
0.03554244394 
0.03598469599 
0.03497797023 
0.03434382092 
0.03552943594 
0.03555242201 
0.03597452464 
0.03406667283 
0.03568161144 
0.03489028626 
0.03574665386 
0.03444697734 
0.03413103662 
0.03464568052 
0.03518422054 
0.03419531112 
0.03576297707 
0.03500680205 
0.03509328603 
0.03512715621 
0.03521638305 
0.03499893146 
0.03575168085 
0.03479216652 
0.0356577234 
0.03547051658 
0.03518000789 
0.03566048556 
0.03499460592 
0.03539708556 
0.03489917773 
0.03492494254 
0.03579196223 
0.03380798441 
0.0343033038 
0.03503141441 
0.03462257838 
0.034502805 
0.03455190827 
0.03641744365 
0.0356195234 
0.0359844515 
0.03432805856 
0.03595722467 
0.03477123455 
0.03459756654 
0.03501318082 
0.03520652872 
0.03561721715 
0.03542630501 
0.03591124755 
0.03477458571 
