# vtk DataFile Version 3.0
MOAB 4.9.0
ASCII
DATASET UNSTRUCTURED_GRID
POINTS 246 double
-6.123233996e-18 -7.498798913e-34 0.1
-0.03243642024 -3.972315822e-18 0.09459322725
-0.01621821012 -0.02809076394 0.09459322725
0.01621821012 -0.02809076394 0.09459322725
0.03243642024 -1.440466424e-17 0.09459322725
0.01621821012 0.02809076394 0.09459322725
-0.01621821012 0.02809076394 0.09459322725
-6.123233996e-18 -7.498798913e-34 -0.1
-0.03243642024 -3.972315822e-18 -0.09459322725
-0.01621821012 -0.02809076394 -0.09459322725
0.01621821012 -0.02809076394 -0.09459322725
0.03243642024 -1.440466424e-17 -0.09459322725
0.01621821012 0.02809076394 -0.09459322725
-0.01621821012 0.02809076394 -0.09459322725
0.01547016054 0.09835261846 -0.009350752607
-0.01971855331 0.09733815375 -0.01168171562
0.0876958207 0.04537858369 -0.01581857052
0.06757705269 0.07363082302 -0.003441489509
0.08419750215 -0.05118605353 -0.01705193702
0.09818909979 -0.01806627991 -0.005701772726
0.0005276322263 -0.09839582394 -0.01783209006
0.03542289203 -0.09329989008 -0.006352104534
-0.07888736839 -0.0597090123 -0.01454706011
-0.05715372654 -0.08166150795 -0.008052928762
-0.08560662811 0.04930623267 -0.01550485868
-0.07563928939 -0.06482092876 0.008771835369
-0.09414441117 -0.03327804066 0.005422347719
0.006282842776 -0.09856402613 0.01567350121
-0.02789535729 -0.09596283852 0.003603146572
0.0873260941 -0.04579936867 0.01663042749
0.06609368181 -0.07485788027 0.005284220548
0.08461245304 0.05026937044 0.01771223266
0.09821640599 0.01783946988 0.005940615173
0.004059277285 0.09837806246 0.01747223782
0.03889231695 0.09168161001 0.009048208046
-0.09893675723 0.01435652162 0.002325587392
-0.08423300313 0.05118656742 0.016874137
-0.06033763131 0.07972519999 -0.001806304171
0.04227465584 0.08763456838 -0.0230875702
0.09543976222 0.01147533226 -0.027560271
0.05890403091 -0.07577720407 -0.02807366178
-0.03295062122 -0.08997422099 -0.02861636101
-0.04295212651 0.08510538891 -0.03020244371
-0.09668934844 -0.01035548164 -0.02332239049
-0.05320802697 -0.08153352756 0.02282958059
0.03930568789 -0.08785155322 0.02715082864
0.09539950001 -0.01157624308 0.0276572955
0.0600939473 0.0744374616 0.02911669296
-0.09556026081 -0.005894312882 0.02887028974
-0.03182919452 0.09165545826 0.02421114097
0.01119535965 0.09251917025 -0.03626109567
-0.01747600144 0.08728786793 -0.04555675017
0.08059732993 0.03645534955 -0.0466377304
0.06599771667 0.06576885475 -0.03631472345
0.07219171459 -0.05037555889 -0.04744111521
0.08968580873 -0.02213955868 -0.03829224012
-0.00588699976 -0.08768944577 -0.04770643914
0.02708201545 -0.0881492116 -0.03868179072
-0.08383535927 -0.0396466659 -0.0374135593
-0.06109961625 -0.07000545609 -0.03696042494
-0.06504040385 0.0670446606 -0.03570377224
-0.07873320219 0.04372823689 -0.04346175526
-0.0920782782 0.01997370245 -0.03350584866
-0.07453876432 -0.05705933209 0.03447035298
-0.08501161518 -0.02949256266 0.04362584134
0.00995730466 -0.08804760466 0.0463516062
-0.02267226951 -0.09047549197 0.03605764202
0.0804562546 -0.03617523066 0.04709717383
0.06518075246 -0.06568168294 0.03791287426
0.07242899638 0.04978160539 0.0477056836
0.08970908097 0.02196923344 0.03833580016
-0.00460693945 0.08827624967 0.04675553286
0.02870419161 0.0873830428 0.03924631468
-0.09006395747 0.02343479211 0.03659636708
-0.0757241954 0.04736277859 0.0449734748
-0.06040544959 0.07153291418 0.03513152216
0.03754202322 0.07594791914 -0.05312730061
0.08226353182 0.005021415614 -0.05663476598
0.04623852144 -0.06802437485 -0.05687427856
-0.03520074947 -0.07470975181 -0.05638581578
-0.04125009224 0.07190635788 -0.05592768176
-0.08482577824 -0.006414279289 -0.05256847313
-0.04660875287 -0.07115270794 0.0525824715
0.03783642044 -0.07343739435 0.05635028305
0.08224638412 -0.004961788806 0.05666491816
0.04676856871 0.06741535303 0.05716529679
-0.08295059398 -0.0005683608383 0.05584689717
-0.03408526915 0.0760892767 0.05521427712
0.007763978133 0.07662178096 -0.06378732888
-0.01747223667 0.07114511403 -0.06806683256
0.06775051404 0.02593991392 -0.06882578523
0.05690513902 0.0513570334 -0.06422040387
0.05618709334 -0.04531063376 -0.06920951532
0.07206794677 -0.02316627164 -0.06534167817
-0.01085679639 -0.07141311727 -0.06915415138
0.01662956529 -0.07379168628 -0.06540829147
-0.07064095094 -0.02710277102 -0.06538574656
-0.05799270025 -0.05190487228 -0.06279116938
-0.05934487659 0.04984609112 -0.06319456323
-0.07467790993 0.02286712029 -0.06245241851
-0.06274871039 -0.04572623189 0.06302151269
-0.07053953744 -0.02104798992 0.06768423581
0.01221084432 -0.0717312666 0.06859679784
-0.01546537193 -0.07531951919 0.06393584519
0.06780740963 -0.02531171271 0.06900342309
0.05692387601 -0.05013560761 0.06516205329
0.0563161001 0.0450682113 0.06926292803
0.07202876269 0.02319714248 0.0653739239
-0.0101113208 0.07194054358 0.06871913402
0.01715996202 0.07369354731 0.06538193014
-0.07204124635 0.02654389949 0.06407402144
-0.05547412372 0.0534619235 0.0637529947
0.02848192597 0.05545376588 -0.0781898954
0.06048748882 0.001786690736 -0.07961200558
0.03194875689 -0.05133583058 -0.07964866246
-0.02932320971 -0.05358543081 -0.07917544428
-0.03234592929 0.05223274459 -0.07890171894
-0.06263721002 -0.001791769094 -0.07793182588
-0.03365807569 -0.05277929974 0.07798384102
0.02920911986 -0.05322645094 0.07945924891
0.06056928671 -0.00146162235 0.07955642757
0.03197816829 0.05120617154 0.0797202907
-0.06120210575 0.001644932248 0.07906703769
-0.02851081907 0.05413813564 0.07909611537
-0.0018131494 0.05408957217 -0.08408942069
0.04536029995 0.02872880238 -0.08436290122
0.04695697724 -0.02511958157 -0.08464070481
0.001634969437 -0.05324240714 -0.08463198542
-0.04686022246 -0.0284040912 -0.08365002782
-0.04860579694 0.02663026128 -0.08323644447
-0.04777452175 -0.0258029055 0.08397502688
-0.001922389451 -0.05386986768 0.08422791565
0.04546056483 -0.02789306049 0.08458909044
0.04694889166 0.02510192668 0.08465042734
0.001986128465 0.05330429492 0.08458550371
-0.04663826996 0.02872355311 0.08366498235
-0.02282793075 0.01286946982 -0.002673310228
-0.04798640683 0.03352741525 -0.02417912707
-0.04870273918 0.006351385266 0.01568228193
-0.05637349933 0.0276890099 0.01893514022
-0.02854210511 -0.01385851018 -0.0347779803
-0.03228688985 -0.02609728277 0.002476249589
-0.04440842569 -0.01166947559 -0.01283575781
0.004479460418 -0.007190402132 -0.0147408545
-0.02441293746 -0.008205925114 0.02206681669
-0.01095508225 0.00198810827 -0.04743557796
0.003991114441 0.01973241381 -0.02457443811
0.01149600651 -0.006411617622 0.02666788176
0.001481711632 0.03000740707 -0.0004877392203
-0.02247146331 0.02908192575 -0.02586631291
-0.02098319679 0.05690923333 -0.00228618132
0.05150577053 0.04995335639 0.03325561062
0.05299882963 0.03065340221 0.01440812089
0.05234706774 0.01534296293 0.03539848328
0.0481092222 0.03107895702 0.05612023175
0.01177306753 0.01681108586 0.074662745
0.04731721058 0.0006938430015 0.05572739989
0.01519113686 0.02789174765 0.04053900018
0.02509679273 0.01660263352 0.003337853821
0.04770726338 0.005253662355 -0.01002200786
0.0323748216 -0.001167921349 -0.02947445028
0.02936366946 -0.02719111182 -0.002031298354
0.009098126553 0.05580539256 -0.01687132195
0.02869984694 0.05573172495 -0.0004583919363
0.01898772456 0.05681260675 0.02975889482
0.0320090726 0.02615521103 -0.02231494896
-0.01329190377 0.0249644015 0.05110966787
0.0151489554 0.05201603845 0.05585144088
0.03132529929 -0.02502749115 0.0290385019
-0.04896108806 0.02834210917 0.04690485075
0.06382040679 -0.01242560148 0.002823941177
0.03890410811 0.05808593333 -0.02943830006
-0.01977338269 0.002844503149 -0.07386638224
-0.04250101373 0.003854500363 -0.06069399789
-0.02854055166 0.0310341455 0.02154579945
-0.06246769801 -0.0207284335 0.01668315008
-0.06350198388 -0.02984000556 -0.01038052328
0.004347859416 -0.03492434695 0.02360840514
0.0009003796731 -0.03445438668 -0.005034737289
-0.02175788581 -0.04299234971 0.02117132582
0.05479595438 -0.00668191351 -0.05588984117
0.03598235175 0.00630366616 -0.07357901335
0.04287989065 -0.02178665623 -0.05681109801
-0.04825285822 -0.05059468001 -0.01692320034
-0.04033468664 -0.0596101433 0.001544520142
-0.06017272919 -0.04068736732 0.00815715827
-0.05814533681 -0.01534592919 -0.04588438198
-0.05137125775 -0.02776108868 0.03713249043
-0.02558045648 -0.02119847201 0.05471588299
-0.008960628882 -0.02471181564 -0.07271003723
-0.07308016717 -0.0001625518926 0.010648733
-0.05715209618 0.00778461108 -0.02831301279
-0.05583681539 -0.03967631981 -0.03747076169
-0.07258308679 0.02066479996 -0.01306351833
0.0767038092 0.02168761939 -0.01090869866
0.07471755147 0.00084081979 -0.02891385555
0.07443393767 0.007299779914 0.01911307126
0.05704182759 0.0296717789 -0.03096355125
0.05527051911 0.04949158803 -0.0002189098741
0.01891193353 -0.007207534742 -0.06307421625
0.02461641096 -0.02464610338 -0.06925480813
0.04845886305 0.01870248839 -0.05152639747
0.06476356834 -0.02473041415 -0.03017002344
0.006899569649 0.01881911978 -0.06080436707
0.00497916108 -0.03621377051 0.05442332104
-0.06078300253 0.005526196677 0.04126093909
0.02585137635 -0.02869295701 -0.03283547983
0.02513558418 -0.05494163185 0.02384067886
0.01277762745 -0.06476871669 -0.01495761424
-0.01395403221 0.05585958436 0.04349949956
0.06407764554 -0.02350669168 0.03797816113
0.05720615387 -0.03559944779 -0.01307109278
0.04984171316 -0.03940985352 0.01251307689
0.03215438128 -0.07245203108 0.00840164721
0.0340824537 -0.0660764128 -0.0196915064
-0.04889683053 -0.02044910938 0.06047713384
-0.0263545122 0.01281150896 0.0723432824
-0.06831377745 -0.0121443551 0.04398301616
-0.02486981079 -0.048131302 0.05403076857
-0.04013013095 -0.0425873287 -0.04831316695
-0.035825748 0.05837452412 -0.03684808314
-0.008272908628 0.0725325942 -0.01995029673
-0.005461244844 0.04912930354 -0.05200510845
-0.02418059856 0.03346373886 -0.06182688475
0.003312927438 0.07628174126 0.004352529533
-0.0005201889435 -0.0683215335 0.01194876339
0.01336925197 -0.06061935425 0.0492406711
[...]
POINT_DATA 246
SCALARS KDE_TALLY_TAG double 1
LOOKUP_TABLE default
4.733480519 
4.160179214 
4.092822803 
4.621299544 
4.321616772 
4.255924974 
4.376248775 
4.403044699 
4.488555201 
4.082055925 
4.425727656 
4.506735192 
4.21954905 
4.517252931 
4.698455245 
4.172209728 
4.51082397 
4.406769929 
4.734190637 
4.010942847 
4.270244805 
4.65521235 
4.462977036 
4.329467433 
4.15182791 
4.132546823 
4.538462707 
4.864756388 
4.344757222 
4.394408558 
4.15954915 
4.570895102 
4.616351145 
4.397610619 
4.595736454 
4.677359427 
4.095095452 
4.199853401 
4.368375193 
4.683943095 
4.246926426 
4.441563231 
4.25273342 
4.28076556 
4.695354309 
4.767031635 
4.411759937 
4.29561518 
4.424368755 
4.580456517 
4.054361802 
4.378027886 
4.326968841 
3.99287137 
4.5200963 
4.621304086 
4.57605993 
4.456926365 
4.277279277 
4.374099044 
4.259959229 
4.615306475 
4.548152295 
4.623111143 
4.762668768 
4.384118676 
4.317441704 
4.298078742 
4.307847827 
4.27029282 
4.464653323 
3.843819989 
4.729155063 
4.404505968 
4.395121589 
4.158687413 
4.430636256 
4.042508738 
4.355451718 
4.374770121 
4.531743359 
4.387938379 
4.493396259 
4.500683683 
4.462318886 
4.484320163 
4.473955285 
4.419737529 
4.419654256 
4.468238006 
4.3539288 
4.031356585 
4.379157144 
4.648417903 
4.472333437 
4.487120139 
4.320629424 
4.498220612 
4.315901686 
4.350017008 
4.469434516 
4.022124626 
4.277470281 
4.356297984 
4.270798862 
3.888564552 
4.206822505 
4.343091966 
4.532563435 
4.356845361 
4.455771087 
4.507149002 
4.477710626 
4.587685837 
4.435938872 
4.301023246 
4.52751128 
4.923436214 
4.200632331 
4.44833128 
4.627217672 
4.220372117 
4.349807117 
4.108728037 
4.521651936 
4.33201426 
4.597869911 
4.1874838 
4.571290545 
4.378002769 
4.34902253 
4.404562148 
4.395523689 
4.368063654 
4.608348526 
4.420752512 
5.3702104 
4.95187633 
5.334364761 
5.286081438 
4.936797127 
5.386318804 
5.439927363 
5.500638985 
5.308340964 
5.443429489 
5.95792483 
5.877275077 
5.518137897 
5.481285524 
5.512548092 
5.409287072 
4.550893997 
5.826750998 
4.882677772 
4.930093938 
5.3768344 
5.494735973 
5.458631038 
5.220510956 
5.489016529 
5.527033973 
5.269627398 
5.41764433 
5.280695389 
4.679284801 
4.923923725 
4.922909334 
5.236502062 
4.801655371 
5.380176207 
5.05760353 
5.156630509 
5.04146876 
4.881683088 
5.355081793 
5.497686792 
5.267176967 
5.344843916 
5.557513025 
4.957835006 
5.015667987 
5.05300798 
4.994196526 
5.00970361 
4.978887867 
4.920761093 
4.982166316 
5.577429263 
4.706773925 
4.83792949 
5.332764941 
5.177533644 
5.226678634 
5.195681428 
5.071257024 
5.571131362 
5.24093507 
5.077834976 
5.060653449 
5.255170025 
5.433974071 
4.668959881 
5.07678203 
4.975076037 
5.743484167 
5.403771133 
5.637420434 
5.383799825 
5.470553818 
4.982200933 
5.241906576 
5.524103875 
5.270280266 
5.396114564 
5.126995124 
5.240965706 
5.33996897 
4.945373191 
4.925953816 
5.182276574 
5.489772937 
5.299705521 
5.259328337 
5.191980662 
5.083546487 
4.721085582 
5.643315075 
5.826261193 
5.451507973 
5.08580705 
5.300608326 
5.145900172 
4.553251139 
4.944698079 
4.928753933 
5.48859725 
4.773050591 
5.065233502 
5.072716218 
5.503653727 
5.164163257 
4.789079693 
4.942709613 
5.013329631 
5.074216935 
SCALARS KDE_ERROR_TAG double 1
LOOKUP_TABLE default
0.04466915913 
0.04734208344 
0.04649362537 
0.04516731403 
0.04638520294 
0.04428319179 
0.04461282509 
0.04447914547 
0.04584279377 
0.04520006734 
0.04666732037 
0.04651222638 
0.04624378162 
0.04644239803 
0.04645794029 
0.04589890264 
0.04520173267 
0.04493325645 
0.04141180534 
0.04817530075 
0.04568362441 
0.04544021662 
0.04364374667 
0.04378249726 
0.0457796972 
0.04524619317 
0.04658178036 
0.04437726519 
0.04597761945 
0.04635294518 
0.04701185843 
0.0473196531 
0.04401798689 
0.04560163023 
0.04405590927 
0.04476780116 
0.04452828623 
0.044972813 
0.04521427227 
0.04495415633 
0.04661301585 
0.04415809327 
0.04497829391 
0.04615465142 
0.04501607561 
0.0433552307 
0.04556849872 
0.04567471875 
0.04747119277 
0.04486374104 
0.04817212991 
0.04545592811 
0.04509516504 
0.04756139741 
0.0445922543 
0.04529298714 
0.04381823346 
0.04470623639 
0.04581480696 
0.04548383442 
0.04482903194 
0.0453679003 
0.04632239929 
0.0459228151 
0.04392190299 
0.04704238164 
0.04490096694 
0.04494715943 
0.04495179039 
0.04504369007 
0.04487372469 
0.04806068795 
0.04615015425 
0.04567296332 
0.04585227223 
0.04443670866 
0.04608382264 
0.04864444241 
0.04533140504 
0.04596379067 
0.04733662072 
0.04502066668 
0.04507688952 
0.04502287006 
0.04555320687 
0.04423721803 
0.04414955456 
0.04623641359 
0.04605382954 
0.04548936027 
0.04468559945 
0.04607167983 
0.04558484837 
0.04369866746 
0.04480409281 
0.04678666232 
0.0445915767 
0.04568313076 
0.04564190079 
0.04505117237 
0.04401860991 
0.04672304787 
0.04585231837 
0.0455390736 
0.04504229543 
0.04708495103 
0.04638740198 
0.04420822709 
0.04762188634 
0.04503408185 
0.04531699954 
0.04532852949 
0.04516594521 
0.04514225808 
0.04507116934 
0.04675875533 
0.04408228878 
0.04415099925 
0.04515253598 
0.04375839306 
0.04532006925 
0.04693382826 
0.04503998051 
0.04550578167 
0.04371926901 
0.04527876364 
0.04575376613 
0.0448265715 
0.04639049856 
0.04632148626 
0.04573449476 
0.04679346035 
0.0440636406 
0.04713709823 
0.04559912989 
0.0461153212 
0.050212823 
0.05237238313 
0.05305412454 
0.04988519684 
0.05220137342 
0.05142225812 
0.0517317021 
0.05335046844 
0.05302987474 
0.05199420715 
0.05111177518 
0.0512718171 
0.05234262665 
0.05015381299 
0.04752779287 
0.04994142355 
0.05235092951 
0.05143202268 
0.04941520924 
0.05073296918 
0.04921934306 
0.05022353389 
0.0498175377 
0.05076665311 
0.05289595253 
0.05142746883 
0.05060237209 
0.04982884822 
0.05052048721 
0.05303737567 
0.05284599501 
0.04937813489 
0.05194461942 
0.05099861661 
0.04991841664 
0.04962093231 
0.05071964009 
0.05183316087 
0.04978654134 
0.05078928288 
0.05013045088 
0.05331973404 
0.05026158248 
0.05107189783 
0.04948962409 
0.0504385238 
0.05107147141 
0.05181307493 
0.05130285135 
0.05076433364 
0.04976994242 
0.05309791645 
0.04905288673 
0.05053457765 
0.05015557517 
0.05019700771 
0.04950414492 
0.05003893062 
0.04912130539 
0.05122761642 
0.05112938898 
0.04885768714 
0.05146123348 
0.05241380469 
0.04885339393 
0.04930427881 
0.0506574608 
0.05041480351 
0.05159958793 
0.0494896453 
0.05066916114 
0.04962178615 
0.05197441078 
0.0495323379 
0.05008863962 
0.05030452413 
0.0509394002 
0.04937934792 
0.05096041944 
0.04895271243 
0.05099013838 
0.04666492486 
0.05139077973 
0.05120621973 
0.04960289085 
0.05124334008 
0.05000151735 
0.05110834949 
0.04864389864 
0.0498462709 
0.049471396 
0.0498532677 
0.04752867059 
0.04883106205 
0.04954559386 
0.04783302764 
0.04768407781 
0.0511527134 
0.05017049217 
0.05047747694 
0.04925918466 
0.05005335254 
0.05314578783 
0.05012729755 
0.04988557224 
0.04931075288 
0.0500342752 
0.04904978459 
0.05245774454 
0.04860002439 
