# vtk DataFile Version 3.0
MOAB 4.9.0
ASCII
DATASET UNSTRUCTURED_GRID
POINTS 1225 double
0 -0.5 0.5
0 0.5 0.5
0 -0.3333333333 0.5
0 -0.1666666667 0.5
0 0 0.5
0 0.1666666667 0.5
0 0.3333333333 0.5
0 0.5 -0.5
0 0.5 0.3333333333
0 0.5 0.1666666667
0 0.5 0
0 0.5 -0.1666666667
0 0.5 -0.3333333333
0 -0.5 -0.5
0 0.3333333333 -0.5
0 0.1666666667 -0.5
0 0 -0.5
0 -0.1666666667 -0.5
0 -0.3333333333 -0.5
0 -0.5 -0.3333333333
0 -0.5 -0.1666666667
0 -0.5 0
0 -0.5 0.1666666667
0 -0.5 0.3333333333
0 -0.3333333333 0.3333333333
0 -0.1666666667 0.3333333333
0 -6.938893904e-18 0.3333333333
0 0.1666666667 0.3333333333
0 0.3333333333 0.3333333333
0 -0.3333333333 0.1666666667
0 -0.1666666667 0.1666666667
0 -1.387778781e-17 0.1666666667
0 0.1666666667 0.1666666667
0 0.3333333333 0.1666666667
0 -0.3333333333 0
0 -0.1666666667 0
0 0 0
0 0.1666666667 0
0 0.3333333333 0
0 -0.3333333333 -0.1666666667
0 -0.1666666667 -0.1666666667
0 0 -0.1666666667
0 0.1666666667 -0.1666666667
0 0.3333333333 -0.1666666667
0 -0.3333333333 -0.3333333333
0 -0.1666666667 -0.3333333333
0 0 -0.3333333333
0 0.1666666667 -0.3333333333
0 0.3333333333 -0.3333333333
5 -0.5 -0.5
0.2083333333 -0.5 -0.5
0.4166666667 -0.5 -0.5
0.625 -0.5 -0.5
0.8333333333 -0.5 -0.5
1.041666667 -0.5 -0.5
1.25 -0.5 -0.5
1.458333333 -0.5 -0.5
1.666666667 -0.5 -0.5
1.875 -0.5 -0.5
2.083333333 -0.5 -0.5
2.291666667 -0.5 -0.5
2.5 -0.5 -0.5
2.708333333 -0.5 -0.5
2.916666667 -0.5 -0.5
3.125 -0.5 -0.5
3.333333333 -0.5 -0.5
3.541666667 -0.5 -0.5
3.75 -0.5 -0.5
3.958333333 -0.5 -0.5
4.166666667 -0.5 -0.5
4.375 -0.5 -0.5
4.583333333 -0.5 -0.5
4.791666667 -0.5 -0.5
5 -0.5 0.5
5 -0.5 0.3333333333
5 -0.5 0.1666666667
5 -0.5 0
5 -0.5 -0.1666666667
5 -0.5 -0.3333333333
4.791666667 -0.5 0.5
4.583333333 -0.5 0.5
4.375 -0.5 0.5
4.166666667 -0.5 0.5
3.958333333 -0.5 0.5
3.75 -0.5 0.5
3.541666667 -0.5 0.5
3.333333333 -0.5 0.5
3.125 -0.5 0.5
2.916666667 -0.5 0.5
2.708333333 -0.5 0.5
2.5 -0.5 0.5
2.291666667 -0.5 0.5
2.083333333 -0.5 0.5
1.875 -0.5 0.5
1.666666667 -0.5 0.5
1.458333333 -0.5 0.5
1.25 -0.5 0.5
1.041666667 -0.5 0.5
0.8333333333 -0.5 0.5
0.625 -0.5 0.5
0.4166666667 -0.5 0.5
0.2083333333 -0.5 0.5
0.2083333333 -0.5 -0.3333333333
0.4166666667 -0.5 -0.3333333333
0.625 -0.5 -0.3333333333
0.8333333333 -0.5 -0.3333333333
1.041666667 -0.5 -0.3333333333
1.25 -0.5 -0.3333333333
1.458333333 -0.5 -0.3333333333
1.666666667 -0.5 -0.3333333333
1.875 -0.5 -0.3333333333
2.083333333 -0.5 -0.3333333333
2.291666667 -0.5 -0.3333333333
2.5 -0.5 -0.3333333333
2.708333333 -0.5 -0.3333333333
2.916666667 -0.5 -0.3333333333
3.125 -0.5 -0.3333333333
3.333333333 -0.5 -0.3333333333
3.541666667 -0.5 -0.3333333333
3.75 -0.5 -0.3333333333
3.958333333 -0.5 -0.3333333333
4.166666667 -0.5 -0.3333333333
4.375 -0.5 -0.3333333333
4.583333333 -0.5 -0.3333333333
4.791666667 -0.5 -0.3333333333
0.2083333333 -0.5 -0.1666666667
0.4166666667 -0.5 -0.1666666667
0.625 -0.5 -0.1666666667
0.8333333333 -0.5 -0.1666666667
1.041666667 -0.5 -0.1666666667
1.25 -0.5 -0.1666666667
1.458333333 -0.5 -0.1666666667
1.666666667 -0.5 -0.1666666667
1.875 -0.5 -0.1666666667
2.083333333 -0.5 -0.1666666667
2.291666667 -0.5 -0.1666666667
2.5 -0.5 -0.1666666667
2.708333333 -0.5 -0.1666666667
2.916666667 -0.5 -0.1666666667
3.125 -0.5 -0.1666666667
3.333333333 -0.5 -0.1666666667
3.541666667 -0.5 -0.1666666667
3.75 -0.5 -0.1666666667
3.958333333 -0.5 -0.1666666667
4.166666667 -0.5 -0.1666666667
4.375 -0.5 -0.1666666667
4.583333333 -0.5 -0.1666666667
4.791666667 -0.5 -0.1666666667
0.2083333333 -0.5 0
0.4166666667 -0.5 0
0.625 -0.5 0
0.8333333333 -0.5 0
1.041666667 -0.5 0
1.25 -0.5 0
1.458333333 -0.5 0
1.666666667 -0.5 0
1.875 -0.5 0
2.083333333 -0.5 0
2.291666667 -0.5 0
2.5 -0.5 0
2.708333333 -0.5 0
2.916666667 -0.5 0
3.125 -0.5 0
3.333333333 -0.5 0
3.541666667 -0.5 0
3.75 -0.5 0
3.958333333 -0.5 0
4.166666667 -0.5 0
4.375 -0.5 0
4.583333333 -0.5 0
4.791666667 -0.5 0
0.2083333333 -0.5 0.1666666667
0.4166666667 -0.5 0.1666666667
0.625 -0.5 0.1666666667
0.8333333333 -0.5 0.1666666667
1.041666667 -0.5 0.1666666667
1.25 -0.5 0.1666666667
1.458333333 -0.5 0.1666666667
1.666666667 -0.5 0.1666666667
1.875 -0.5 0.1666666667
2.083333333 -0.5 0.1666666667
2.291666667 -0.5 0.1666666667
2.5 -0.5 0.1666666667
2.708333333 -0.5 0.1666666667
2.916666667 -0.5 0.1666666667
3.125 -0.5 0.1666666667
3.333333333 -0.5 0.1666666667
3.541666667 -0.5 0.1666666667
3.75 -0.5 0.1666666667
3.958333333 -0.5 0.1666666667
4.166666667 -0.5 0.1666666667
4.375 -0.5 0.1666666667
4.583333333 -0.5 0.1666666667
4.791666667 -0.5 0.1666666667
0.2083333333 -0.5 0.3333333333
0.4166666667 -0.5 0.3333333333
0.625 -0.5 0.3333333333
0.8333333333 -0.5 0.3333333333
1.041666667 -0.5 0.3333333333
1.25 -0.5 0.3333333333
1.458333333 -0.5 0.3333333333
1.666666667 -0.5 0.3333333333
1.875 -0.5 0.3333333333
2.083333333 -0.5 0.3333333333
2.291666667 -0.5 0.3333333333
2.5 -0.5 0.3333333333
2.708333333 -0.5 0.3333333333
2.916666667 -0.5 0.3333333333
3.125 -0.5 0.3333333333
3.333333333 -0.5 0.3333333333
3.541666667 -0.5 0.3333333333
3.75 -0.5 0.3333333333
3.958333333 -0.5 0.3333333333
4.166666667 -0.5 0.3333333333
4.375 -0.5 0.3333333333
4.583333333 -0.5 0.3333333333
4.791666667 -0.5 0.3333333333
5 0.5 -0.5
4.791666667 0.5 -0.5
4.583333333 0.5 -0.5
4.375 0.5 -0.5
4.166666667 0.5 -0.5
3.958333333 0.5 -0.5
3.75 0.5 -0.5
3.541666667 0.5 -0.5
3.333333333 0.5 -0.5
3.125 0.5 -0.5
2.916666667 0.5 -0.5
2.708333333 0.5 -0.5
2.5 0.5 -0.5
2.291666667 0.5 -0.5
2.083333333 0.5 -0.5
1.875 0.5 -0.5
1.666666667 0.5 -0.5
1.458333333 0.5 -0.5
1.25 0.5 -0.5
1.041666667 0.5 -0.5
0.8333333333 0.5 -0.5
0.625 0.5 -0.5
0.4166666667 0.5 -0.5
0.2083333333 0.5 -0.5
5 -0.3333333333 -0.5
5 -0.1666666667 -0.5
5 0 -0.5
5 0.1666666667 -0.5
5 0.3333333333 -0.5
0.2083333333 0.3333333333 -0.5
0.4166666667 0.3333333333 -0.5
0.625 0.3333333333 -0.5
0.8333333333 0.3333333333 -0.5
1.041666667 0.3333333333 -0.5
1.25 0.3333333333 -0.5
1.458333333 0.3333333333 -0.5
1.666666667 0.3333333333 -0.5
1.875 0.3333333333 -0.5
2.083333333 0.3333333333 -0.5
2.291666667 0.3333333333 -0.5
2.5 0.3333333333 -0.5
2.708333333 0.3333333333 -0.5
2.916666667 0.3333333333 -0.5
3.125 0.3333333333 -0.5
3.333333333 0.3333333333 -0.5
3.541666667 0.3333333333 -0.5
3.75 0.3333333333 -0.5
3.958333333 0.3333333333 -0.5
4.166666667 0.3333333333 -0.5
4.375 0.3333333333 -0.5
4.583333333 0.3333333333 -0.5
4.791666667 0.3333333333 -0.5
0.2083333333 0.1666666667 -0.5
0.4166666667 0.1666666667 -0.5
0.625 0.1666666667 -0.5
0.8333333333 0.1666666667 -0.5
1.041666667 0.1666666667 -0.5
1.25 0.1666666667 -0.5
1.458333333 0.1666666667 -0.5
1.666666667 0.1666666667 -0.5
1.875 0.1666666667 -0.5
2.083333333 0.1666666667 -0.5
2.291666667 0.1666666667 -0.5
2.5 0.1666666667 -0.5
2.708333333 0.1666666667 -0.5
2.916666667 0.1666666667 -0.5
3.125 0.1666666667 -0.5
3.333333333 0.1666666667 -0.5
3.541666667 0.1666666667 -0.5
3.75 0.1666666667 -0.5
3.958333333 0.1666666667 -0.5
4.166666667 0.1666666667 -0.5
4.375 0.1666666667 -0.5
4.583333333 0.1666666667 -0.5
4.791666667 0.1666666667 -0.5
0.2083333333 0 -0.5
0.4166666667 0 -0.5
0.625 0 -0.5
0.8333333333 0 -0.5
1.041666667 0 -0.5
1.25 0 -0.5
1.458333333 0 -0.5
1.666666667 0 -0.5
1.875 0 -0.5
2.083333333 0 -0.5
2.291666667 0 -0.5
2.5 0 -0.5
2.708333333 0 -0.5
2.916666667 0 -0.5
3.125 0 -0.5
3.333333333 0 -0.5
3.541666667 0 -0.5
3.75 0 -0.5
3.958333333 0 -0.5
4.166666667 0 -0.5
4.375 0 -0.5
4.583333333 0 -0.5
4.791666667 0 -0.5
0.2083333333 -0.1666666667 -0.5
0.4166666667 -0.1666666667 -0.5
0.625 -0.1666666667 -0.5
0.8333333333 -0.1666666667 -0.5
1.041666667 -0.1666666667 -0.5
1.25 -0.1666666667 -0.5
1.458333333 -0.1666666667 -0.5
1.666666667 -0.1666666667 -0.5
1.875 -0.1666666667 -0.5
2.083333333 -0.1666666667 -0.5
2.291666667 -0.1666666667 -0.5
2.5 -0.1666666667 -0.5
2.708333333 -0.1666666667 -0.5
2.916666667 -0.1666666667 -0.5
3.125 -0.1666666667 -0.5
3.333333333 -0.1666666667 -0.5
3.541666667 -0.1666666667 -0.5
3.75 -0.1666666667 -0.5
3.958333333 -0.1666666667 -0.5
4.166666667 -0.1666666667 -0.5
4.375 -0.1666666667 -0.5
4.583333333 -0.1666666667 -0.5
4.791666667 -0.1666666667 -0.5
0.2083333333 -0.3333333333 -0.5
0.4166666667 -0.3333333333 -0.5
0.625 -0.3333333333 -0.5
0.8333333333 -0.3333333333 -0.5
1.041666667 -0.3333333333 -0.5
1.25 -0.3333333333 -0.5
1.458333333 -0.3333333333 -0.5
1.666666667 -0.3333333333 -0.5
1.875 -0.3333333333 -0.5
2.083333333 -0.3333333333 -0.5
2.291666667 -0.3333333333 -0.5
2.5 -0.3333333333 -0.5
2.708333333 -0.3333333333 -0.5
2.916666667 -0.3333333333 -0.5
3.125 -0.3333333333 -0.5
3.333333333 -0.3333333333 -0.5
3.541666667 -0.3333333333 -0.5
3.75 -0.3333333333 -0.5
3.958333333 -0.3333333333 -0.5
4.166666667 -0.3333333333 -0.5
4.375 -0.3333333333 -0.5
4.583333333 -0.3333333333 -0.5
4.791666667 -0.3333333333 -0.5
5 0.5 0.5
5 0.3333333333 0.5
5 0.1666666667 0.5
5 0 0.5
5 -0.1666666667 0.5
5 -0.3333333333 0.5
5 0.5 -0.3333333333
5 0.5 -0.1666666667
5 0.5 0
5 0.5 0.1666666667
5 0.5 0.3333333333
5 0.3333333333 0.3333333333
5 0.1666666667 0.3333333333
5 6.938893904e-18 0.3333333333
5 -0.1666666667 0.3333333333
5 -0.3333333333 0.3333333333
5 0.3333333333 0.1666666667
5 0.1666666667 0.1666666667
5 1.387778781e-17 0.1666666667
5 -0.1666666667 0.1666666667
5 -0.3333333333 0.1666666667
5 0.3333333333 0
5 0.1666666667 0
5 0 0
5 -0.1666666667 0
5 -0.3333333333 0
5 0.3333333333 -0.1666666667
5 0.1666666667 -0.1666666667
5 0 -0.1666666667
5 -0.1666666667 -0.1666666667
5 -0.3333333333 -0.1666666667
5 0.3333333333 -0.3333333333
5 0.1666666667 -0.3333333333
5 0 -0.3333333333
5 -0.1666666667 -0.3333333333
5 -0.3333333333 -0.3333333333
0.2083333333 0.5 0.5
0.4166666667 0.5 0.5
0.625 0.5 0.5
0.8333333333 0.5 0.5
1.041666667 0.5 0.5
1.25 0.5 0.5
1.458333333 0.5 0.5
1.666666667 0.5 0.5
1.875 0.5 0.5
2.083333333 0.5 0.5
2.291666667 0.5 0.5
2.5 0.5 0.5
2.708333333 0.5 0.5
2.916666667 0.5 0.5
3.125 0.5 0.5
3.333333333 0.5 0.5
3.541666667 0.5 0.5
3.75 0.5 0.5
3.958333333 0.5 0.5
4.166666667 0.5 0.5
4.375 0.5 0.5
4.583333333 0.5 0.5
4.791666667 0.5 0.5
[...]
POINT_DATA 1225
SCALARS KDE_TALLY_TAG double 1
LOOKUP_TABLE default
2.986199303 
3.054340281 
2.947738488 
3.021800623 
2.98743976 
3.010333768 
2.96941266 
3.036900203 
3.049100287 
2.993276908 
3.01407123 
3.067492783 
2.996517377 
3.034252363 
3.029427474 
2.986347763 
3.088956611 
3.051678672 
2.952405565 
2.985910549 
3.014084362 
3.019190361 
3.036338581 
3.025570575 
3.045576706 
2.994958398 
2.963644887 
3.092276992 
3.00269583 
3.031934304 
3.023170917 
3.032454495 
2.970484682 
2.991531541 
2.89030601 
3.028225313 
3.040268861 
2.994811653 
3.032190792 
3.092257038 
3.074612476 
3.065805834 
2.972630502 
2.98961463 
3.063224179 
3.006160807 
3.062254099 
3.020152702 
3.035275334 
2.189208415 
3.029133594 
2.974761057 
2.939635627 
2.874352053 
2.846441647 
2.820968594 
2.711843908 
2.682304208 
2.672764228 
2.605648023 
2.540135207 
2.513062343 
2.4554824 
2.403641664 
2.347562368 
2.344496565 
2.286137408 
2.32684073 
2.213886186 
2.228652647 
2.140139721 
2.215668643 
2.166806604 
2.28056031 
2.177820974 
2.12640184 
2.113084258 
2.171540729 
2.07808595 
2.170376201 
2.144171578 
2.145131471 
2.211491321 
2.199298176 
2.255545198 
2.313128552 
2.340439352 
2.292852676 
2.335526073 
2.415899078 
2.454547945 
2.646315348 
2.599769308 
2.654022012 
2.726864067 
2.734971865 
2.795268578 
2.819107788 
2.88204391 
2.938449868 
2.96032264 
2.967195496 
3.043016775 
2.958176161 
2.950949485 
2.832366117 
2.747925927 
2.914645107 
2.746660422 
2.647216163 
2.705697219 
2.591483805 
2.514798644 
2.537551567 
2.467507484 
2.444524575 
2.390058858 
2.356535572 
2.296053888 
2.301822862 
2.254978314 
2.272327166 
2.199926372 
2.128508357 
2.215628447 
2.986938765 
2.963721599 
2.892979853 
2.899023192 
2.764770458 
2.760113281 
2.717368868 
2.59776161 
2.62784997 
2.603700499 
2.490654224 
2.492140352 
2.486433464 
2.429763238 
2.390667774 
2.365122605 
2.293101224 
2.252015945 
2.249973812 
2.224115261 
2.170470176 
2.220684506 
2.146196925 
2.995408551 
2.999571697 
2.914133918 
2.894970012 
2.860162623 
2.738468994 
2.71801967 
2.706109228 
2.569840398 
2.530805024 
2.478920371 
2.474529217 
2.4443698 
2.36476246 
2.361543251 
2.336501082 
2.324966246 
2.239753737 
2.215212838 
2.195933796 
2.209070364 
2.111838809 
2.159724873 
3.010593274 
3.018982008 
2.959196252 
2.829132114 
2.843475166 
2.781248602 
2.684879098 
2.697620573 
2.629308235 
2.519459848 
2.561916876 
2.485930126 
2.425757922 
2.382662812 
2.330537779 
2.360141357 
2.245830936 
2.347729958 
2.250638673 
2.191598163 
2.201017049 
2.183342347 
2.155948282 
2.993787279 
2.98145293 
2.884114467 
2.966859077 
2.865136919 
2.76963924 
2.774049044 
2.649272153 
2.608335109 
2.499878841 
2.497322914 
2.485866682 
2.469435052 
2.416013226 
2.35840805 
2.304128121 
2.300509548 
2.26881701 
2.235317938 
2.153775675 
2.225234385 
2.150217543 
2.155023447 
2.153308922 
2.17582716 
2.176922461 
2.146968254 
2.199059252 
2.22973644 
2.209040266 
2.281698347 
2.332555375 
2.364239237 
2.370345435 
2.427499166 
2.466965089 
2.591945447 
2.609929498 
2.627818051 
2.718733898 
2.713547885 
2.793152885 
2.822352222 
2.869157087 
2.992028261 
2.962946036 
2.940106118 
2.16319215 
2.218567021 
2.173987846 
2.167309423 
2.188105387 
3.005466357 
2.936018251 
2.902700243 
2.886528192 
2.819923255 
2.779322993 
2.802597221 
2.683021267 
2.62974386 
2.596532241 
2.459365653 
2.498623186 
2.435344394 
2.362431795 
2.420222462 
2.355916659 
2.241006475 
2.258240744 
2.249783336 
2.205944975 
2.140479452 
2.181754078 
2.155001224 
2.935973234 
3.012923254 
2.89536248 
2.89874788 
2.849266884 
2.886987924 
2.78945093 
2.700560843 
2.638074545 
2.614103412 
2.558149593 
2.466166915 
2.459464832 
2.407576087 
2.399299206 
2.34838138 
2.282593526 
2.286064535 
2.198191987 
2.208125157 
2.18178226 
2.208887163 
2.138408498 
2.977441889 
2.997934056 
2.90491194 
2.931806291 
2.900552413 
2.822757857 
2.705456782 
2.723271804 
2.67462808 
2.571003046 
2.567038065 
2.43166744 
2.448516436 
2.395966214 
2.429351141 
2.258596336 
2.258658517 
2.222052424 
2.205219452 
2.159982809 
2.16427582 
2.183662608 
2.146036302 
2.996410066 
2.976376512 
2.909445576 
2.937885392 
2.838393663 
2.799228565 
2.740627467 
2.658726383 
2.699027909 
2.574278379 
2.476311286 
2.488371907 
2.426401861 
2.348297027 
2.369885493 
2.361148794 
2.294730131 
2.264822688 
2.247859911 
2.331969782 
2.194563188 
2.112048227 
2.163441655 
3.01026633 
2.936754439 
2.914446468 
2.932743601 
2.859049952 
2.788419242 
2.745210677 
2.695139428 
2.65174591 
2.537442152 
2.529137366 
2.452718864 
2.490602453 
2.433131884 
2.398526854 
2.292016166 
2.328983633 
2.276958928 
2.231777842 
2.166809761 
2.2616416 
2.138941575 
2.204372542 
2.199934291 
2.15621551 
2.121771765 
2.135840691 
2.152243461 
2.152826718 
2.12457093 
2.140050738 
2.111538946 
2.176254961 
2.158615234 
2.122309424 
2.134713974 
2.109455996 
2.214900497 
2.177185336 
2.116281866 
2.152728362 
2.088654873 
2.168613985 
2.157015479 
2.162824672 
2.178569473 
2.135693854 
2.175502794 
2.137269183 
2.151816977 
2.1645552 
2.172863345 
2.148980034 
2.177665078 
2.138863738 
2.160001519 
2.190803608 
2.232590712 
2.137837352 
3.098828498 
2.934857696 
2.89795203 
2.878336717 
2.804290016 
2.808687331 
2.671397237 
2.688830817 
2.632921334 
2.541830396 
2.538978275 
2.502250656 
2.473449211 
2.360577171 
2.369723834 
2.310726467 
2.319299686 
2.252235543 
2.193874088 
2.17646586 
2.155897789 
2.171892319 
2.128313818 
2.940578591 
2.990101717 
2.987795009 
2.832109204 
2.853744354 
2.841624206 
2.760308848 
2.673936628 
2.588527205 
2.592484335 
2.562539369 
2.4515863 
2.460519122 
2.413811768 
2.354105498 
2.339698692 
2.244321025 
2.253653374 
2.203698208 
2.195333346 
2.194089295 
2.146993984 
2.169883142 
2.994726852 
2.883038736 
2.911809217 
2.888970401 
2.804670631 
2.850090531 
2.765235341 
2.683069963 
2.619449011 
2.53895279 
2.552610724 
2.4451579 
2.461960331 
2.432352685 
2.368077447 
2.336548091 
2.286094787 
2.266457192 
2.250105994 
2.229623717 
2.167711258 
2.164243523 
2.181028344 
3.016616678 
2.920527273 
2.903754887 
2.8790505 
2.768503665 
2.769706977 
2.738793897 
2.73209717 
2.658764792 
2.59961873 
2.479735702 
2.468463028 
2.422565193 
2.491085812 
2.384805089 
2.32031572 
2.286575944 
2.24755354 
2.263966844 
2.203971423 
2.221424526 
2.128727504 
2.122367576 
3.014065592 
2.957199849 
2.942408668 
2.835699616 
2.822121589 
2.809575427 
2.749271823 
2.703288223 
2.695851661 
2.57352853 
2.544389516 
2.492156004 
2.426454947 
2.315485502 
2.363868718 
2.351646104 
2.283404064 
2.281708505 
2.220495515 
2.225510936 
2.232974056 
2.189752724 
2.169026386 
2.964171459 
2.934719236 
2.951856098 
2.871415022 
2.853010439 
2.731654132 
2.738391702 
2.688285964 
2.615737379 
2.658492751 
2.542916404 
2.488830481 
2.401897756 
2.400616103 
2.286009291 
2.283723771 
2.263148073 
2.306302578 
2.244332456 
2.232909111 
2.226482155 
2.188337574 
2.130821654 
3.021388607 
2.969560398 
2.934213916 
2.928631578 
2.844781347 
2.775564098 
2.736278244 
2.707669572 
2.639086109 
2.527615168 
2.509440064 
2.464914085 
2.477102267 
2.430338663 
2.389437732 
2.326643431 
2.292602926 
2.253849005 
2.219916259 
2.160970258 
2.205495194 
2.224336391 
2.16866047 
2.953777466 
2.916624776 
2.966905397 
2.934650862 
2.807518618 
2.791680905 
2.714311845 
2.738093469 
2.606504656 
2.591165027 
2.546814785 
2.4867449 
2.440820119 
2.316583194 
2.291999107 
2.335972247 
2.320404794 
2.27892775 
2.268429529 
2.200574358 
2.244610416 
2.189847533 
2.139148701 
2.976141007 
3.000950792 
2.927374379 
2.929207667 
2.795988685 
2.694777232 
2.702016957 
2.700571584 
2.678758514 
2.584964191 
2.543636251 
2.486969474 
2.460328332 
2.361537533 
2.32652937 
2.277318028 
2.287496038 
2.216515863 
2.228688864 
2.141050155 
2.186375558 
2.144938201 
2.163375646 
3.012777699 
3.04500961 
2.91560711 
2.838037101 
2.827315617 
2.810842888 
2.654249941 
2.661895254 
2.679619762 
2.588782861 
2.506833968 
2.486047644 
2.509820579 
2.467653716 
2.392376875 
2.243855941 
2.283463956 
2.18185269 
2.207691185 
2.18324451 
2.151147954 
2.236078355 
2.197337984 
2.994095424 
3.1118545 
2.935081243 
2.894873031 
2.803432071 
2.771180406 
2.78488597 
2.72869232 
2.637771311 
2.586176823 
2.542308005 
2.489967297 
2.433466441 
2.374088417 
2.389426695 
2.289497079 
2.198849542 
2.298981175 
2.222165854 
2.177672567 
2.162452716 
2.217415868 
2.168729828 
2.989897987 
2.931432242 
2.847332928 
2.932637545 
2.842695244 
2.805542285 
2.744748543 
2.670062812 
2.592152244 
2.571120474 
2.538904874 
2.48749036 
2.451782348 
2.410431986 
2.370488798 
2.354676525 
2.284740806 
2.255572779 
2.208572935 
2.232046814 
2.212094182 
2.16574246 
2.152230885 
3.060154709 
2.971928826 
2.954774158 
2.900925037 
2.801625955 
2.814158694 
2.693253326 
2.652652838 
2.625929176 
2.616221298 
2.486521715 
2.450512791 
2.483960046 
2.407910498 
2.415746123 
2.336768297 
2.232376899 
2.287363307 
2.267608116 
2.206898582 
2.146929903 
2.128537918 
2.136319734 
2.942602062 
2.966235524 
2.965047457 
2.913345678 
2.8072507 
2.881201676 
2.689844983 
2.724609412 
2.690058827 
2.594754511 
2.481643698 
2.46720853 
2.462226285 
2.381887857 
2.349155523 
2.265778039 
2.278598751 
2.24543537 
2.219705452 
2.125952559 
2.092167578 
2.153529971 
2.188976259 
2.964218205 
2.982411771 
2.861123646 
2.869902053 
2.824176689 
2.787048159 
2.738570224 
2.671237435 
2.622217229 
2.631287835 
2.488610525 
2.492353631 
2.45831516 
2.378333377 
2.36843691 
2.314146081 
2.311237206 
2.262430981 
2.207469154 
2.169379828 
2.111039848 
2.180224973 
2.184276081 
3.012898339 
2.966508644 
2.858015074 
2.927593827 
2.80518643 
2.706049662 
2.770306925 
2.688248348 
2.621354415 
2.6142889 
2.526423427 
2.497113733 
2.516979415 
2.387020248 
2.332832455 
2.289923897 
2.253457668 
2.240089128 
2.226604542 
2.161235833 
2.190490379 
2.198366608 
2.176693197 
3.024188329 
3.016544184 
2.985298587 
2.868696525 
2.894599129 
2.84018794 
2.724562965 
2.654866967 
2.660152653 
2.665109609 
2.544842666 
2.511206048 
2.424929395 
2.435102365 
2.367970633 
2.320073878 
2.299012036 
2.214297827 
2.211952143 
2.200648872 
2.23387591 
2.210660744 
2.209812533 
2.980229958 
3.015275103 
2.916234971 
2.865782997 
2.85439422 
2.799696569 
2.736678222 
2.714345787 
2.656753929 
2.585833043 
2.595181529 
2.410698674 
2.382760942 
2.367605487 
2.390727559 
2.336187479 
2.263262834 
2.248559654 
2.239113533 
2.221344268 
2.240238693 
2.194785884 
2.164960402 
3.007343304 
2.918603534 
2.847953049 
2.891408271 
2.835908549 
2.776279628 
2.706727985 
2.632010489 
2.636131249 
2.570231755 
2.512448809 
2.525786871 
2.423483926 
2.343465946 
2.26574755 
2.331682159 
2.314744041 
2.31721952 
2.266181317 
2.128103292 
2.185647768 
2.182747667 
2.182421952 
3.001942572 
2.995073456 
2.919896744 
2.882940808 
2.833560444 
2.823844533 
2.714600197 
2.70817068 
2.679987682 
2.60266857 
2.513379901 
2.518052523 
2.403905787 
2.40763413 
2.363917428 
2.260088432 
2.296355298 
2.362068843 
2.305599097 
2.150841838 
2.177622529 
2.190561378 
2.158036956 
2.995440116 
3.021806898 
2.932126946 
2.85821842 
2.846503988 
2.846168227 
2.772828441 
2.754108348 
2.761265441 
2.618221 
2.483009824 
2.547039962 
2.4193077 
2.392198765 
2.303541893 
2.30645254 
2.277639015 
2.273555735 
2.210018417 
2.261661232 
2.210767435 
2.213217936 
2.192627986 
2.98523845 
3.028229217 
2.953797928 
2.82897797 
2.838914318 
2.790842333 
2.722322907 
2.643726821 
2.678642562 
2.608074884 
2.546049514 
2.538122458 
2.426752552 
2.400373834 
2.279865069 
2.32948772 
2.216170273 
2.220619297 
2.247868602 
2.169043236 
2.206302161 
2.153229739 
2.180956138 
3.01783942 
2.876014597 
2.938670957 
2.85828542 
2.785290799 
2.731572919 
2.719802417 
2.664901307 
2.624071542 
2.605210268 
2.512828406 
2.448535997 
2.41136289 
2.405556472 
2.331324845 
2.347824622 
2.257925247 
2.2580898 
2.257251207 
2.172684572 
2.145033312 
2.104031638 
2.159482679 
2.980378132 
3.012575727 
2.891091817 
2.826817858 
2.825347935 
2.763386766 
2.866474766 
2.708079503 
2.66347587 
2.57564429 
2.612765065 
2.507166508 
2.4736214 
2.432836536 
2.360445569 
2.389083106 
2.254242299 
2.248965506 
2.254710702 
2.208567853 
2.167207218 
2.113928857 
2.18112209 
3.061585315 
3.007322743 
2.915789724 
2.942413733 
2.854403189 
2.711825913 
2.771227064 
2.702353873 
2.600289437 
2.537607841 
2.550101104 
2.510305739 
2.493818783 
2.402111685 
2.293649089 
2.339094227 
2.373434225 
2.28390996 
2.213414543 
2.26024353 
2.12685547 
2.1685543 
2.105687216 
2.986600036 
2.988269595 
2.96231488 
2.926434429 
2.789452274 
2.827867149 
2.789880507 
2.717767536 
2.575239103 
2.588974887 
2.548485875 
2.467184741 
2.491839439 
2.418591861 
2.4143503 
2.269273111 
2.274385224 
2.215123196 
2.275488123 
2.188539264 
2.197324494 
2.208264739 
2.18023276 
2.995344943 
2.958697311 
2.914923154 
2.873262998 
2.925837226 
2.773466961 
2.732930597 
2.624474967 
2.59200974 
2.573371265 
2.498862992 
2.537400755 
2.401781605 
2.366857812 
2.383245258 
2.301721342 
2.300467101 
2.260725129 
2.249993673 
2.204922549 
2.208608641 
2.170869775 
2.212413367 
3.034164037 
2.983302926 
2.887885499 
2.851684452 
2.81142127 
2.818748884 
2.734125457 
2.725413825 
2.625811566 
2.67413538 
2.541844019 
2.513947148 
2.467060769 
2.361787842 
2.350694465 
2.323621503 
2.323153807 
2.283343299 
2.2354291 
2.235533207 
2.120173387 
2.225499042 
2.126475241 
3.001268764 
3.002631701 
2.879547053 
2.959653668 
2.834511863 
2.803871116 
2.744362663 
2.717098353 
2.609782261 
2.564438948 
2.550006241 
2.417875028 
2.467968566 
2.324693899 
2.315756746 
2.286886341 
2.253399264 
2.219292828 
2.159005217 
2.170346442 
2.196285597 
2.146957901 
2.079104413 
2.998663857 
2.974338455 
2.915953008 
2.925293159 
2.798755909 
2.804280477 
2.665542119 
2.684338877 
2.692922088 
2.555897825 
2.601788163 
2.573913369 
2.411620341 
2.384816968 
2.405472463 
2.30572078 
2.276867694 
2.271385956 
2.221135688 
2.265475325 
2.23836346 
2.165928154 
2.134937935 
3.005748466 
3.006667392 
2.902275957 
2.823892524 
2.854639495 
2.82619183 
2.761429267 
2.704620697 
2.683690878 
2.489820604 
2.556147967 
2.515243143 
2.468176287 
2.377780883 
2.329937728 
2.350920407 
2.35847945 
2.171051521 
2.19828868 
2.236776038 
2.23317183 
2.151598807 
2.134163626 
2.959713237 
2.952014339 
2.848373687 
2.865746292 
2.816126512 
2.836009011 
2.75528306 
2.667811172 
2.575469366 
2.614394547 
2.578793168 
2.485788861 
2.471572423 
2.437076184 
2.361183996 
2.281786202 
2.239060493 
2.276043909 
2.218366134 
2.245162008 
2.169074171 
2.200765217 
2.159820263 
2.992251141 
2.952030894 
3.012290036 
2.912541225 
2.854222999 
2.84145799 
2.844131571 
2.655328775 
2.678550102 
2.642689543 
2.527635659 
2.488163186 
2.446710844 
2.376360011 
2.401264128 
2.290102269 
2.256618058 
2.273978938 
2.307396347 
2.176960557 
2.23317976 
2.243021568 
2.160175572 
3.012095038 
2.888276968 
2.897512197 
2.880950168 
2.804604929 
2.766814805 
2.696834895 
2.629866642 
2.646622272 
2.563980892 
2.578421418 
2.526044184 
2.471258191 
2.485683979 
2.37353097 
2.366684078 
2.280607998 
2.244100795 
2.24303745 
2.253963252 
2.205222905 
2.174252103 
2.116263632 
3.02537293 
3.028888208 
2.899646192 
2.878632782 
2.840017391 
2.776799464 
2.730465801 
2.692636766 
2.673575302 
2.581984694 
2.529989882 
2.510715507 
2.432605514 
2.416311023 
2.383571189 
2.304164814 
2.30125325 
2.315292834 
2.294942078 
2.200268322 
2.172508765 
2.169494979 
2.189605148 
3.009542991 
2.99018186 
2.933089612 
2.856212958 
2.861351195 
2.809235055 
2.792387504 
2.757414794 
2.579459562 
2.585674023 
2.534052958 
2.483812331 
2.449452687 
2.325267032 
2.37702829 
2.315759462 
2.306230065 
2.220264459 
2.217049913 
2.21567011 
2.192348946 
2.219622111 
2.166647388 
SCALARS KDE_ERROR_TAG double 1
LOOKUP_TABLE default
0.0141020143 
0.01412162801 
0.01350150942 
0.01360206353 
0.01350640743 
0.01344465073 
0.0134821461 
0.01396264721 
0.01350243036 
0.01340393927 
0.01366018164 
0.01346250926 
0.0135734887 
0.01409976189 
0.01342557966 
0.01322563273 
0.01386541107 
0.01348571679 
0.0135385587 
0.01341839406 
0.01345689311 
0.01347943611 
0.01345910758 
0.01349239552 
0.01264002699 
0.01295434272 
0.01293416493 
0.01298545722 
0.01265428164 
0.01278924731 
0.01322829223 
0.01315049344 
0.01324454171 
0.01292701733 
0.01294908242 
0.01294903646 
0.01305808153 
0.01293025981 
0.01296517818 
0.01308914487 
0.01311931735 
0.01282862947 
0.01296903474 
0.0130228897 
0.01265005944 
0.01305870653 
0.01290987753 
0.01283940861 
0.01281493373 
0.01541153006 
0.01329033474 
0.01369999262 
0.01370223005 
0.01381124504 
0.01411267068 
0.01377411707 
0.01410679471 
0.01389245797 
0.01411551218 
0.0141276355 
0.01392657906 
0.0142296474 
0.0141501143 
0.01439893388 
0.01430885252 
0.01444558323 
0.0142562241 
0.01451392886 
0.01444455238 
0.01450227836 
0.01453088645 
0.01466122649 
0.01430301456 
0.0151241562 
0.01442557781 
0.01457080828 
0.01442677168 
0.01450757971 
0.0144876449 
0.0146861416 
0.01444394557 
0.01442179206 
0.01444941545 
0.01457817689 
0.01474419467 
0.01454056104 
0.0142380252 
0.01433721976 
0.01426633655 
0.01437212768 
0.01409921177 
0.01404791263 
0.01408037724 
0.01381520306 
0.01379876431 
0.01385559695 
0.0141515389 
0.01380239833 
0.01412813123 
0.01393688592 
0.013604047 
0.01364799808 
0.01306693796 
0.01302615873 
0.01326314173 
0.01345290356 
0.01321945179 
0.01336031444 
0.01341829775 
0.01359749368 
0.01382411843 
0.01332853577 
0.01371913729 
0.01378024108 
0.01357746392 
0.01366897218 
0.01382097248 
0.01409811137 
0.014159456 
0.01407406848 
0.01386437658 
0.01390024129 
0.01393328995 
0.01373687769 
0.01389659841 
0.01302264381 
0.01347318549 
0.01346488294 
0.01364682467 
0.01377484921 
0.01358189026 
0.01358029572 
0.01389630752 
0.01328734743 
0.01374675801 
0.01386469301 
0.01415053119 
0.01390361678 
0.01403886213 
0.01396954096 
0.01408606002 
0.0141841445 
0.01417104348 
0.01411648839 
0.01410640821 
0.01432472061 
0.01390548732 
0.01406458848 
0.01301952353 
0.01312327591 
0.01348166581 
0.01364286446 
0.01370801056 
0.01357807853 
0.01361470423 
0.01391260927 
0.01381988752 
0.01390527911 
0.01400414984 
0.01413887462 
0.01389347821 
0.0141108467 
0.014183509 
0.01406942923 
0.01426870319 
0.01426446677 
0.01442117277 
0.01421663393 
0.01411446107 
0.0144602445 
0.01412389015 
0.01316535839 
0.01315927248 
0.01347348784 
0.01364098216 
0.01339661136 
0.01366603743 
0.01368000207 
0.01346117603 
0.01384803075 
0.01383264043 
0.01372696318 
0.01352854584 
0.01386341913 
0.01407997946 
0.0141900419 
0.01392708932 
0.01412992565 
0.01433305899 
0.01431679377 
0.01406806556 
0.014217884 
0.01414765253 
0.0140450434 
0.01317483447 
0.01303118104 
0.01346810303 
0.01349636944 
0.01335801688 
0.01342943644 
0.0136954322 
0.01359764353 
0.01347899577 
0.0135165874 
0.01403194726 
0.01382412956 
0.01369973127 
0.01397790272 
0.01365719313 
0.01394513894 
0.01367979485 
0.01388881276 
0.01429486717 
0.01404221048 
0.01397766662 
0.01400183619 
0.01389058821 
0.01496333455 
0.01457629674 
0.01448179735 
0.01458396096 
0.01456919282 
0.01450566276 
0.01453309529 
0.01438206895 
0.01415264552 
0.01424620297 
0.01398251277 
0.01432807241 
0.01425150426 
0.01442119009 
0.01425768838 
0.01398628016 
0.01383804544 
0.01400808581 
0.01424606296 
0.01380613622 
0.01376867026 
0.01369580289 
0.01349729812 
0.01360797122 
0.01438283173 
0.01427132152 
0.01455589982 
0.01443666963 
0.01438069562 
0.01293198654 
0.01300948176 
0.01333995843 
0.01358022469 
0.01314169534 
0.01360563736 
0.01350688221 
0.01344815498 
0.01365126101 
0.01357443627 
0.01354827046 
0.01363752474 
0.01385207895 
0.01379835987 
0.01388284631 
0.01379988122 
0.01382821264 
0.01422014848 
0.01408243298 
0.01405291494 
0.01389994626 
0.01377200351 
0.01380744781 
0.01307151719 
0.013345145 
0.01357201204 
0.013584822 
0.01397258975 
0.01333723843 