# vtk DataFile Version 3.0
MOAB 4.9.0
ASCII
DATASET UNSTRUCTURED_GRID
POINTS 1225 double
0 -0.5 0.5
0 0.5 0.5
0 -0.3333333333 0.5
0 -0.1666666667 0.5
0 0 0.5
0 0.1666666667 0.5
0 0.3333333333 0.5
0 0.5 -0.5
0 0.5 0.3333333333
0 0.5 0.1666666667
0 0.5 0
0 0.5 -0.1666666667
0 0.5 -0.3333333333
0 -0.5 -0.5
0 0.3333333333 -0.5
0 0.1666666667 -0.5
0 0 -0.5
0 -0.1666666667 -0.5
0 -0.3333333333 -0.5
0 -0.5 -0.3333333333
0 -0.5 -0.1666666667
0 -0.5 0
0 -0.5 0.1666666667
0 -0.5 0.3333333333
0 -0.3333333333 0.3333333333
0 -0.1666666667 0.3333333333
0 -6.938893904e-18 0.3333333333
0 0.1666666667 0.3333333333
0 0.3333333333 0.3333333333
0 -0.3333333333 0.1666666667
0 -0.1666666667 0.1666666667
0 -1.387778781e-17 0.1666666667
0 0.1666666667 0.1666666667
0 0.3333333333 0.1666666667
0 -0.3333333333 0
0 -0.1666666667 0
0 0 0
0 0.1666666667 0
0 0.3333333333 0
0 -0.3333333333 -0.1666666667
0 -0.1666666667 -0.1666666667
0 0 -0.1666666667
0 0.1666666667 -0.1666666667
0 0.3333333333 -0.1666666667
0 -0.3333333333 -0.3333333333
0 -0.1666666667 -0.3333333333
0 0 -0.3333333333
0 0.1666666667 -0.3333333333
0 0.3333333333 -0.3333333333
2.5 -0.5 -0.5
0.2083333333 -0.5 -0.5
0.4166666667 -0.5 -0.5
0.625 -0.5 -0.5
0.8333333333 -0.5 -0.5
1.041666667 -0.5 -0.5
1.25 -0.5 -0.5
1.458333333 -0.5 -0.5
1.666666667 -0.5 -0.5
1.875 -0.5 -0.5
2.083333333 -0.5 -0.5
2.291666667 -0.5 -0.5
2.5 -0.5 0.5
2.5 -0.5 0.3333333333
2.5 -0.5 0.1666666667
2.5 -0.5 0
2.5 -0.5 -0.1666666667
2.5 -0.5 -0.3333333333
2.291666667 -0.5 0.5
2.083333333 -0.5 0.5
1.875 -0.5 0.5
1.666666667 -0.5 0.5
1.458333333 -0.5 0.5
1.25 -0.5 0.5
1.041666667 -0.5 0.5
0.8333333333 -0.5 0.5
0.625 -0.5 0.5
0.4166666667 -0.5 0.5
0.2083333333 -0.5 0.5
0.2083333333 -0.5 -0.3333333333
0.4166666667 -0.5 -0.3333333333
0.625 -0.5 -0.3333333333
0.8333333333 -0.5 -0.3333333333
1.041666667 -0.5 -0.3333333333
1.25 -0.5 -0.3333333333
1.458333333 -0.5 -0.3333333333
1.666666667 -0.5 -0.3333333333
1.875 -0.5 -0.3333333333
2.083333333 -0.5 -0.3333333333
2.291666667 -0.5 -0.3333333333
0.2083333333 -0.5 -0.1666666667
0.4166666667 -0.5 -0.1666666667
0.625 -0.5 -0.1666666667
0.8333333333 -0.5 -0.1666666667
1.041666667 -0.5 -0.1666666667
1.25 -0.5 -0.1666666667
1.458333333 -0.5 -0.1666666667
1.666666667 -0.5 -0.1666666667
1.875 -0.5 -0.1666666667
2.083333333 -0.5 -0.1666666667
2.291666667 -0.5 -0.1666666667
0.2083333333 -0.5 0
0.4166666667 -0.5 0
0.625 -0.5 0
0.8333333333 -0.5 0
1.041666667 -0.5 0
1.25 -0.5 0
1.458333333 -0.5 0
1.666666667 -0.5 0
1.875 -0.5 0
2.083333333 -0.5 0
2.291666667 -0.5 0
0.2083333333 -0.5 0.1666666667
0.4166666667 -0.5 0.1666666667
0.625 -0.5 0.1666666667
0.8333333333 -0.5 0.1666666667
1.041666667 -0.5 0.1666666667
1.25 -0.5 0.1666666667
1.458333333 -0.5 0.1666666667
1.666666667 -0.5 0.1666666667
1.875 -0.5 0.1666666667
2.083333333 -0.5 0.1666666667
2.291666667 -0.5 0.1666666667
0.2083333333 -0.5 0.3333333333
0.4166666667 -0.5 0.3333333333
0.625 -0.5 0.3333333333
0.8333333333 -0.5 0.3333333333
1.041666667 -0.5 0.3333333333
1.25 -0.5 0.3333333333
1.458333333 -0.5 0.3333333333
1.666666667 -0.5 0.3333333333
1.875 -0.5 0.3333333333
2.083333333 -0.5 0.3333333333
2.291666667 -0.5 0.3333333333
2.5 0.5 -0.5
2.291666667 0.5 -0.5
2.083333333 0.5 -0.5
1.875 0.5 -0.5
1.666666667 0.5 -0.5
1.458333333 0.5 -0.5
1.25 0.5 -0.5
1.041666667 0.5 -0.5
0.8333333333 0.5 -0.5
0.625 0.5 -0.5
0.4166666667 0.5 -0.5
0.2083333333 0.5 -0.5
2.5 -0.3333333333 -0.5
2.5 -0.1666666667 -0.5
2.5 0 -0.5
2.5 0.1666666667 -0.5
2.5 0.3333333333 -0.5
0.2083333333 0.3333333333 -0.5
0.4166666667 0.3333333333 -0.5
0.625 0.3333333333 -0.5
0.8333333333 0.3333333333 -0.5
1.041666667 0.3333333333 -0.5
1.25 0.3333333333 -0.5
1.458333333 0.3333333333 -0.5
1.666666667 0.3333333333 -0.5
1.875 0.3333333333 -0.5
2.083333333 0.3333333333 -0.5
2.291666667 0.3333333333 -0.5
0.2083333333 0.1666666667 -0.5
0.4166666667 0.1666666667 -0.5
0.625 0.1666666667 -0.5
0.8333333333 0.1666666667 -0.5
1.041666667 0.1666666667 -0.5
1.25 0.1666666667 -0.5
1.458333333 0.1666666667 -0.5
1.666666667 0.1666666667 -0.5
1.875 0.1666666667 -0.5
2.083333333 0.1666666667 -0.5
2.291666667 0.1666666667 -0.5
0.2083333333 0 -0.5
0.4166666667 0 -0.5
0.625 0 -0.5
0.8333333333 0 -0.5
1.041666667 0 -0.5
1.25 0 -0.5
1.458333333 0 -0.5
1.666666667 0 -0.5
1.875 0 -0.5
2.083333333 0 -0.5
2.291666667 0 -0.5
0.2083333333 -0.1666666667 -0.5
0.4166666667 -0.1666666667 -0.5
0.625 -0.1666666667 -0.5
0.8333333333 -0.1666666667 -0.5
1.041666667 -0.1666666667 -0.5
1.25 -0.1666666667 -0.5
1.458333333 -0.1666666667 -0.5
1.666666667 -0.1666666667 -0.5
1.875 -0.1666666667 -0.5
2.083333333 -0.1666666667 -0.5
2.291666667 -0.1666666667 -0.5
0.2083333333 -0.3333333333 -0.5
0.4166666667 -0.3333333333 -0.5
0.625 -0.3333333333 -0.5
0.8333333333 -0.3333333333 -0.5
1.041666667 -0.3333333333 -0.5
1.25 -0.3333333333 -0.5
1.458333333 -0.3333333333 -0.5
1.666666667 -0.3333333333 -0.5
1.875 -0.3333333333 -0.5
2.083333333 -0.3333333333 -0.5
2.291666667 -0.3333333333 -0.5
2.5 0.5 0.5
2.5 0.5 -0.3333333333
2.5 0.5 -0.1666666667
2.5 0.5 0
2.5 0.5 0.1666666667
2.5 0.5 0.3333333333
2.5 0.3333333333 0.5
2.5 0.1666666667 0.5
2.5 0 0.5
2.5 -0.1666666667 0.5
2.5 -0.3333333333 0.5
2.5 0.3333333333 -0.3333333333
2.5 0.3333333333 -0.1666666667
2.5 0.3333333333 -6.938893904e-18
2.5 0.3333333333 0.1666666667
2.5 0.3333333333 0.3333333333
2.5 0.1666666667 -0.3333333333
2.5 0.1666666667 -0.1666666667
2.5 0.1666666667 -1.387778781e-17
2.5 0.1666666667 0.1666666667
2.5 0.1666666667 0.3333333333
2.5 0 -0.3333333333
2.5 0 -0.1666666667
2.5 0 0
2.5 0 0.1666666667
2.5 0 0.3333333333
2.5 -0.1666666667 -0.3333333333
2.5 -0.1666666667 -0.1666666667
2.5 -0.1666666667 0
2.5 -0.1666666667 0.1666666667
2.5 -0.1666666667 0.3333333333
2.5 -0.3333333333 -0.3333333333
2.5 -0.3333333333 -0.1666666667
2.5 -0.3333333333 0
2.5 -0.3333333333 0.1666666667
2.5 -0.3333333333 0.3333333333
0.2083333333 0.5 0.5
0.4166666667 0.5 0.5
0.625 0.5 0.5
0.8333333333 0.5 0.5
1.041666667 0.5 0.5
1.25 0.5 0.5
1.458333333 0.5 0.5
1.666666667 0.5 0.5
1.875 0.5 0.5
2.083333333 0.5 0.5
2.291666667 0.5 0.5
0.2083333333 -0.3333333333 0.5
0.4166666667 -0.3333333333 0.5
0.625 -0.3333333333 0.5
0.8333333333 -0.3333333333 0.5
1.041666667 -0.3333333333 0.5
1.25 -0.3333333333 0.5
1.458333333 -0.3333333333 0.5
1.666666667 -0.3333333333 0.5
1.875 -0.3333333333 0.5
2.083333333 -0.3333333333 0.5
2.291666667 -0.3333333333 0.5
0.2083333333 -0.1666666667 0.5
0.4166666667 -0.1666666667 0.5
0.625 -0.1666666667 0.5
0.8333333333 -0.1666666667 0.5
1.041666667 -0.1666666667 0.5
1.25 -0.1666666667 0.5
1.458333333 -0.1666666667 0.5
1.666666667 -0.1666666667 0.5
1.875 -0.1666666667 0.5
2.083333333 -0.1666666667 0.5
2.291666667 -0.1666666667 0.5
0.2083333333 0 0.5
0.4166666667 0 0.5
0.625 0 0.5
0.8333333333 0 0.5
1.041666667 0 0.5
1.25 0 0.5
1.458333333 0 0.5
1.666666667 0 0.5
1.875 0 0.5
2.083333333 0 0.5
2.291666667 0 0.5
0.2083333333 0.1666666667 0.5
0.4166666667 0.1666666667 0.5
0.625 0.1666666667 0.5
0.8333333333 0.1666666667 0.5
1.041666667 0.1666666667 0.5
1.25 0.1666666667 0.5
1.458333333 0.1666666667 0.5
1.666666667 0.1666666667 0.5
1.875 0.1666666667 0.5
2.083333333 0.1666666667 0.5
2.291666667 0.1666666667 0.5
0.2083333333 0.3333333333 0.5
0.4166666667 0.3333333333 0.5
0.625 0.3333333333 0.5
0.8333333333 0.3333333333 0.5
1.041666667 0.3333333333 0.5
1.25 0.3333333333 0.5
1.458333333 0.3333333333 0.5
1.666666667 0.3333333333 0.5
1.875 0.3333333333 0.5
2.083333333 0.3333333333 0.5
2.291666667 0.3333333333 0.5
0.2083333333 0.5 0.3333333333
0.4166666667 0.5 0.3333333333
0.625 0.5 0.3333333333
0.8333333333 0.5 0.3333333333
1.041666667 0.5 0.3333333333
1.25 0.5 0.3333333333
1.458333333 0.5 0.3333333333
1.666666667 0.5 0.3333333333
1.875 0.5 0.3333333333
2.083333333 0.5 0.3333333333
2.291666667 0.5 0.3333333333
0.2083333333 0.5 0.1666666667
0.4166666667 0.5 0.1666666667
0.625 0.5 0.1666666667
0.8333333333 0.5 0.1666666667
1.041666667 0.5 0.1666666667
1.25 0.5 0.1666666667
1.458333333 0.5 0.1666666667
1.666666667 0.5 0.1666666667
1.875 0.5 0.1666666667
2.083333333 0.5 0.1666666667
2.291666667 0.5 0.1666666667
0.2083333333 0.5 0
0.4166666667 0.5 0
0.625 0.5 0
0.8333333333 0.5 0
1.041666667 0.5 0
1.25 0.5 0
1.458333333 0.5 0
1.666666667 0.5 0
1.875 0.5 0
2.083333333 0.5 0
2.291666667 0.5 0
0.2083333333 0.5 -0.1666666667
0.4166666667 0.5 -0.1666666667
0.625 0.5 -0.1666666667
0.8333333333 0.5 -0.1666666667
1.041666667 0.5 -0.1666666667
1.25 0.5 -0.1666666667
1.458333333 0.5 -0.1666666667
1.666666667 0.5 -0.1666666667
1.875 0.5 -0.1666666667
2.083333333 0.5 -0.1666666667
2.291666667 0.5 -0.1666666667
0.2083333333 0.5 -0.3333333333
0.4166666667 0.5 -0.3333333333
0.625 0.5 -0.3333333333
0.8333333333 0.5 -0.3333333333
1.041666667 0.5 -0.3333333333
1.25 0.5 -0.3333333333
1.458333333 0.5 -0.3333333333
1.666666667 0.5 -0.3333333333
1.875 0.5 -0.3333333333
2.083333333 0.5 -0.3333333333
2.291666667 0.5 -0.3333333333
0.2083333333 -0.3333333333 -0.3333333333
0.4166666667 -0.3333333333 -0.3333333333
0.625 -0.3333333333 -0.3333333333
0.8333333333 -0.3333333333 -0.3333333333
1.041666667 -0.3333333333 -0.3333333333
1.25 -0.3333333333 -0.3333333333
1.458333333 -0.3333333333 -0.3333333333
1.666666667 -0.3333333333 -0.3333333333
1.875 -0.3333333333 -0.3333333333
2.083333333 -0.3333333333 -0.3333333333
2.291666667 -0.3333333333 -0.3333333333
0.2083333333 -0.1666666667 -0.3333333333
0.4166666667 -0.1666666667 -0.3333333333
0.625 -0.1666666667 -0.3333333333
0.8333333333 -0.1666666667 -0.3333333333
1.041666667 -0.1666666667 -0.3333333333
1.25 -0.1666666667 -0.3333333333
1.458333333 -0.1666666667 -0.3333333333
1.666666667 -0.1666666667 -0.3333333333
1.875 -0.1666666667 -0.3333333333
2.083333333 -0.1666666667 -0.3333333333
2.291666667 -0.1666666667 -0.3333333333
0.2083333333 0 -0.3333333333
0.4166666667 1.387778781e-17 -0.3333333333
0.625 -1.387778781e-17 -0.3333333333
0.8333333333 -1.387778781e-17 -0.3333333333
1.041666667 5.551115123e-17 -0.3333333333
1.25 1.387778781e-17 -0.3333333333
[...]
POINT_DATA 1225
SCALARS KDE_TALLY_TAG double 1
LOOKUP_TABLE default
0.006186762477 
0.006245077283 
0.006301771277 
0.006900241183 
0.006190988391 
0.005922356231 
0.006621470178 
0.00604011239 
0.006193308416 
0.006358122619 
0.006257895831 
0.006536829164 
0.006328091212 
0.006697210703 
0.006014761609 
0.006155491482 
0.006134253932 
0.006136323368 
0.006639240155 
0.00582485111 
0.005767509178 
0.006489899886 
0.005711649072 
0.006865897732 
0.006493195128 
0.006310905422 
0.00606955934 
0.006716312797 
0.006504310989 
0.006701383757 
0.00617850752 
0.006951975676 
0.006138404842 
0.005913448953 
0.006106228769 
0.006167546716 
0.005682272117 
0.00584156267 
0.006579881676 
0.007060666601 
0.006074304022 
0.005962009831 
0.005885678269 
0.006098416586 
0.006210006937 
0.006806575332 
0.00627560322 
0.006245241724 
0.006783606577 
0.001244764866 
0.005336175314 
0.004955560285 
0.004344639308 
0.003737312772 
0.003343329927 
0.003385752114 
0.002539387886 
0.002467012458 
0.002393553654 
0.002042156336 
0.002501134922 
0.001263160181 
0.001420394788 
0.001422159318 
0.001037601548 
0.001281511489 
0.001157057183 
0.002211789273 
0.002045090449 
0.002252873007 
0.002390935797 
0.002597613494 
0.002806134307 
0.003172702638 
0.003724360915 
0.004570863822 
0.004637706424 
0.005887411314 
0.005742013532 
0.004825033932 
0.004553777481 
0.003527327341 
0.003508867493 
0.00310560878 
0.002813430752 
0.002064165409 
0.001989282993 
0.002075802164 
0.0021615894 
0.005452947652 
0.005256496282 
0.004322533 
0.003937814039 
0.00326237661 
0.002525456523 
0.002466643725 
0.002350345198 
0.002091664881 
0.001994922235 
0.002296032454 
0.005271480124 
0.005504237315 
0.00384888414 
0.004136919608 
0.003357992596 
0.002910247075 
0.003169864108 
0.002358296915 
0.002126716099 
0.002371561276 
0.002004906413 
0.005374801522 
0.00569033582 
0.003940450701 
0.003747124519 
0.003255846177 
0.003429617661 
0.002597949208 
0.002454240583 
0.001882110955 
0.001942801619 
0.002248118073 
0.006561108986 
0.00548176647 
0.004622013172 
0.004568558453 
0.003461608194 
0.00371414198 
0.002752565256 
0.002839307971 
0.002548676904 
0.002225689744 
0.002030468714 
0.001637196176 
0.001941933161 
0.002181717139 
0.002180637788 
0.002562034336 
0.002606670156 
0.0031470162 
0.003769692778 
0.003721391624 
0.00419603066 
0.00465974463 
0.005211742252 
0.001468230652 
0.001014773552 
0.001371396428 
0.001187654441 
0.001183271771 
0.005465823453 
0.005353111403 
0.004179873531 
0.003608119025 
0.003880605154 
0.003039846416 
0.002741475828 
0.002439861032 
0.002124115202 
0.002150797386 
0.002484930844 
0.005568952442 
0.005585775505 
0.003876464404 
0.003978047641 
0.003114846085 
0.003168986396 
0.002753568801 
0.002648072219 
0.001915610433 
0.002220382115 
0.002426796074 
0.00591685329 
0.00489335334 
0.004438122704 
0.004065316198 
0.003844087779 
0.002892937567 
0.003031052384 
0.002414122356 
0.002136957615 
0.002084981116 
0.002106375824 
0.006059944078 
0.005228924229 
0.00436164716 
0.003187697902 
0.003334748237 
0.002396954777 
0.003121227342 
0.002625222231 
0.002360215937 
0.002307411375 
0.002406464026 
0.005633625075 
0.005230090866 
0.00431885108 
0.00374794389 
0.003256540727 
0.003535335213 
0.003128269169 
0.002217624635 
0.00210435102 
0.002164708256 
0.002096305651 
0.001298330584 
0.001245306188 
0.001454712448 
0.001042016007 
0.001262369804 
0.001194182147 
0.001095099244 
0.00103204894 
0.001202919325 
0.0010861477 
0.001640467226 
0.001266103183 
0.001365873356 
0.0009688485071 
0.001025548506 
0.001025139871 
0.001341123528 
0.001174520819 
0.001067376552 
0.001331131158 
0.001242958217 
0.001372373928 
0.001009301859 
0.001261591584 
0.0009836541634 
0.00124014919 
0.00126773598 
0.001253353007 
0.001180898533 
0.001460538951 
0.00123867052 
0.001162312589 
0.001324644462 
0.001169521203 
0.001310679848 
0.001285987628 
0.005146073844 
0.004781697188 
0.004480040025 
0.004143784768 
0.003121597448 
0.003190507322 
0.002244194514 
0.002408764568 
0.002804339769 
0.002607540318 
0.002204949729 
0.00543887976 
0.004911246442 
0.004917797687 
0.003990005242 
0.003620523705 
0.003023399203 
0.003359779359 
0.002313694798 
0.002219159943 
0.00222737792 
0.002007153788 
0.005478661616 
0.005176926094 
0.004340467823 
0.003691396134 
0.003139045148 
0.002948044435 
0.002677390315 
0.002813327693 
0.002388864149 
0.001861409428 
0.002227084464 
0.006283167302 
0.004807484158 
0.004479889 
0.004155577529 
0.003155103314 
0.003381661899 
0.003242925248 
0.00282734751 
0.001911989308 
0.002528423013 
0.002426664157 
0.005628663151 
0.00588795009 
0.004274309133 
0.003944742866 
0.003411883687 
0.002756685992 
0.002487640404 
0.002873395301 
0.002636569979 
0.002099870606 
0.002247821484 
0.005393736011 
0.004736475943 
0.004348033299 
0.003445765126 
0.003836297794 
0.002993031402 
0.002539453261 
0.002691014817 
0.002256498738 
0.001936303493 
0.002413776806 
0.005684330878 
0.005222971179 
0.004448181217 
0.004313797911 
0.003250695115 
0.003138452378 
0.002996830615 
0.00228932967 
0.002449524395 
0.002343528187 
0.001934594328 
0.005116949709 
0.005191892725 
0.00425936477 
0.004136058302 
0.003607008282 
0.00325282599 
0.002286589416 
0.002610063632 
0.002042732039 
0.001974497247 
0.002040058038 
0.005325699916 
0.005064344917 
0.004893307967 
0.003893482659 
0.003322187045 
0.002761335767 
0.002598858044 
0.002234982357 
0.001959635669 
0.002049148398 
0.001897387283 
0.006715986307 
0.004786197919 
0.004988736091 
0.00434421947 
0.0031999041 
0.003158530384 
0.003262399621 
0.00270238669 
0.002287380077 
0.00213376332 
0.002106514644 
0.005529107105 
0.005508173946 
0.004039933576 
0.003979954913 
0.003425440896 
0.003315316622 
0.003201755092 
0.002254119335 
0.002252239491 
0.002270499945 
0.002222268322 
0.004859861154 
0.004712690142 
0.00454766308 
0.003597764474 
0.00331432896 
0.00292895591 
0.002503267199 
0.002500951525 
0.002217401507 
0.001827705705 
0.002205371752 
0.005759380873 
0.005014491373 
0.005191456152 
0.004227688059 
0.00335285151 
0.002981320167 
0.00283759381 
0.002564346717 
0.001980410136 
0.00201951142 
0.001946919299 
0.005907596217 
0.005280151642 
0.004117005044 
0.003462015415 
0.003307723363 
0.002958920741 
0.002663953419 
0.002637929764 
0.002432486044 
0.002558427196 
0.001966556301 
0.00533578003 
0.004984981025 
0.004203361448 
0.003675597387 
0.003190040441 
0.002840362309 
0.0026365764 
0.002506186853 
0.002206969407 
0.002098173167 
0.002217278783 
0.006482823344 
0.005283126654 
0.0045223989 
0.003779627446 
0.003513406263 
0.003793732077 
0.002525629453 
0.002578652391 
0.002150948443 
0.002436040553 
0.002280044139 
0.006174628877 
0.00569523267 
0.004748310955 
0.004337158458 
0.003517185358 
0.003180214726 
0.003067820823 
0.003046360082 
0.002466693265 
0.002227866026 
0.002005348858 
0.005601151614 
0.004587555568 
0.003845645215 
0.00379966328 
0.002900357701 
0.003016689179 
0.002477377509 
0.002489493608 
0.002367724036 
0.002200333933 
0.002274190473 
0.005192468612 
0.005153733996 
0.004119024755 
0.004038573149 
0.003362076525 
0.003027918698 
0.002297725131 
0.002388123427 
0.002076745015 
0.001779220365 
0.00169790596 
0.006078024174 
0.005211357612 
0.004453392167 
0.003877789177 
0.003467168646 
0.003383917799 
0.002567921719 
0.002361525204 
0.001983253579 
0.002242979022 
0.001955733082 
0.006064807925 
0.004701365813 
0.004857995899 
0.004154551555 
0.003839776135 
0.002840059189 
0.003199955353 
0.002700538396 
0.002538649676 
0.002211205886 
0.002181212878 
0.005633680001 
0.004990106281 
0.004493974885 
0.003982980816 
0.003244640864 
0.003213176201 
0.002590241349 
0.002490790541 
0.002431826039 
0.002256175521 
0.002073270407 
0.005216786118 
0.004037475072 
0.004332105747 
0.003423598359 
0.003309950362 
0.003142532848 
0.002261433067 
0.002688640311 
0.00253949399 
0.00211834675 
0.002431602741 
0.005614097465 
0.004751353875 
0.004396713354 
0.003912471612 
0.003249924134 
0.002963602979 
0.002915076696 
0.002783745725 
0.002237365782 
0.002916026655 
0.002144747849 
0.005815096572 
0.005432835927 
0.004553969436 
0.003674818181 
0.003612304648 
0.002672274626 
0.00310434501 
0.002474912591 
0.002014555838 
0.001896499105 
0.002429271538 
0.00574038403 
0.005100399836 
0.00461304555 
0.003429057032 
0.003940681229 
0.003127066655 
0.002547456704 
0.002298596821 
0.002262174751 
0.00243797211 
0.002452987556 
0.005140672305 
0.005313211116 
0.00470358169 
0.003305710842 
0.003553657691 
0.002964373096 
0.002596558814 
0.002718517019 
0.002320585467 
0.002156491437 
0.002309840714 
0.005336279469 
0.00493106114 
0.004840129282 
0.003461625939 
0.002916696 
0.003245615415 
0.002747860136 
0.002266425676 
0.002329580997 
0.002472629831 
0.002128007802 
0.005850388147 
0.005197082311 
0.00445495039 
0.00392027338 
0.003717500776 
0.003149659482 
0.002738477823 
0.002667277237 
0.002850408329 
0.002252290814 
0.002404999014 
0.005839433208 
0.005486178566 
0.00482166682 
0.004047273442 
0.003637809676 
0.002896062341 
0.003088537421 
0.00253664289 
0.002267754244 
0.002106775394 
0.002611704377 
0.005593401598 
0.004616733834 
0.004719439889 
0.00353314098 
0.002873506362 
0.003359121417 
0.002269276382 
0.002321924255 
0.002168527423 
0.002325386183 
0.001808347826 
0.005656259063 
0.004289993277 
0.004032989673 
0.00341303795 
0.003674692718 
0.003392860448 
0.002325536726 
0.002578456701 
0.002206657214 
0.00199031236 
0.002758196617 
0.005488785807 
0.005064359512 
0.004288611046 
0.004572750553 
0.003494426133 
0.003428815053 
0.002834870925 
0.002761676228 
0.002478864504 
0.002268717731 
0.002483873517 
0.005896369695 
0.004931370261 
0.004315582418 
0.003430879804 
0.003692760784 
0.003568327573 
0.002636407878 
0.002660028057 
0.002061915765 
0.002031762821 
0.002331774263 
0.006233698473 
0.005218700011 
0.004594144459 
0.003861725731 
0.003339626267 
0.002904707364 
0.003208674909 
0.002301498285 
0.002771196312 
0.002762081622 
0.00238179308 
0.006191540771 
0.004540336373 
0.004302381935 
0.00453288978 
0.003587368394 
0.003441821185 
0.002613831946 
0.002841068759 
0.002460932879 
0.002196805812 
0.002223800674 
0.0002212081241 
0.0001642394171 
0.0001195341415 
0.0001118274998 
0.0001147668388 
0.0001118088834 
0.0001105798537 
9.882104037e-05 
9.915755986e-05 
0.0001657236508 
0.0001140748249 
9.30382032e-05 
0.0001938958397 
0.0001107220444 
9.287142005e-05 
0.0001010907925 
0.0001082431585 
0.0001000178369 
0.0001118359074 
0.0001100928237 
0.0001226720735 
0.000105930444 
0.0001251669811 
0.0001039411376 
0.0001499073164 
0.0001120572066 
0.0001097406839 
0.000131914003 
0.0001478096199 
0.000129638047 
0.0001833018661 
0.0001176947139 
0.0001260939947 
0.0001108329598 
0.0001136777143 
0.0001082683199 
9.384861562e-05 
9.351767557e-05 
8.938788723e-05 
0.0001051514221 
0.0001315100913 
0.0001229884212 
0.0001393109702 
0.0001149641629 
0.0001075900308 
9.817629825e-05 
0.0001086820851 
9.877541314e-05 
0.0001214173839 
0.0001195619937 
9.349238684e-05 
0.0001467328386 
0.0001325804561 
0.0001288251753 
0.0001799389097 
0.0001244104349 
0.0001066463843 
9.725135714e-05 
0.0001034834467 
9.855118816e-05 
9.139510652e-05 
0.0002340974178 
0.0001408804941 
0.0001225200114 
0.000119768017 
0.0002151185626 
0.0001043123768 
0.0001215327411 
0.000100530437 
9.173270326e-05 
9.95247022e-05 
0.0001610795304 
0.0001025980043 
0.000141880966 
0.0001173648719 
0.0001591056339 
0.0001285281633 
9.984717095e-05 
0.0001238043346 
0.0001064713653 
9.845888539e-05 
0.0001019132551 
0.0001110414965 
0.00012143402 
8.504238291e-05 
8.742853834e-05 
0.0001004364398 
9.989955634e-05 
0.0001002212976 
9.855587606e-05 
0.0001107116615 
0.000115392581 
0.0001196510781 
0.0001277478216 
0.0001520080893 
0.0001251698157 
9.786828834e-05 
9.744043823e-05 
9.678693424e-05 
0.0001017067683 
9.814425243e-05 
0.0001361743906 
0.0001256113551 
0.0001322634765 
0.0001189938616 
0.0001088277829 
0.0001915486659 
0.0001076254436 
0.0001015569995 
0.0001148880345 
9.312598193e-05 
0.0001138105386 
0.000169502348 
0.0001290002493 
0.0001255900061 
0.0002105542377 
0.0001486930981 
9.461756129e-05 
8.438177654e-05 
0.0001042079878 
9.623218564e-05 
0.0001081493362 
0.0001008982818 
0.0001599604015 
0.0001785313428 
0.0001233397126 
0.0001195672519 
0.0001228168482 
0.0001093072885 
0.000104656508 
0.0001081605607 
9.912181883e-05 
0.0001037756802 
0.0001852494019 
0.0001411844268 
0.0001303270042 
0.0001424269918 
0.000282164987 
0.0001151073249 
0.0001223832378 
9.669463721e-05 
0.000106222515 
0.0001106670068 
9.712430861e-05 
9.35111952e-05 
0.0001504975839 
0.0001267503423 
0.0001158438324 
0.0001081294216 
0.0001110039041 
9.643872621e-05 
0.000111756624 
9.634415051e-05 
9.94268053e-05 
8.986639283e-05 
9.648986186e-05 
0.0001152375076 
9.069273644e-05 
9.061261808e-05 
0.0001733572713 
0.0001503903304 
0.0001136879773 
8.488167511e-05 
0.0001030796373 
0.0001367126166 
9.799612398e-05 
9.761179044e-05 
9.024065719e-05 
0.0001091741787 
0.0001012925694 
0.0001253940121 
0.0001312792646 
0.0001185667028 
8.877297223e-05 
0.0001030708911 
8.846301516e-05 
8.641022381e-05 
0.0001550381321 
9.958976931e-05 
0.0001030311081 
0.0001292193169 
8.571390624e-05 
9.666487124e-05 
0.0001008571184 
9.792001606e-05 
9.760649211e-05 
9.956168735e-05 
0.0001128866329 
0.0001103577077 
9.457658741e-05 
0.0001205999968 
9.618288526e-05 
0.0001262544563 
0.0001323504758 
0.0001162322498 
0.0001136486444 
0.0001156384849 
0.0001019119587 
9.820673287e-05 
0.0001176732754 
0.0001068978088 
0.0001348095195 
0.0001025948695 
0.0001427883705 
0.0001288862149 
0.0001264564025 
0.000144706481 
0.0001125656169 
0.0001018343454 
0.0001075892335 
0.0001014972361 
0.0001163451115 
0.0001005488182 
0.0001076126098 
0.0001424104301 
0.0002971013803 
0.0001226175118 
0.000216947474 
0.0001201036285 
0.0001098807582 
0.0001114072851 
0.00010103344 
0.0001081981374 
8.894228956e-05 
0.000102906691 
0.0001370326775 
0.0001238744517 
0.0001229642834 
0.0001247444877 
0.0001028039431 
0.0001037425037 
0.0001481546551 
0.0001143737642 
0.0001033153636 
0.0001013596365 
0.0001266229804 
0.0001291793378 
0.0001152167048 
0.000110790923 
0.0001312451004 
0.0001156887428 
0.0001086134984 
0.0001353595535 
0.0001056915722 
0.0001057959436 
9.894477834e-05 
0.0001001612679 
0.0001344532943 
0.0001327275664 
0.000105834552 
0.0001231868592 
0.0002717311593 
0.0001234623038 
0.0001058470011 
9.557146953e-05 
0.0001141150902 
9.401693429e-05 
9.684456434e-05 
0.0001350886631 
0.0001312977751 
0.0001054327182 
0.0001562866086 
0.0001207690676 
0.0001125242816 
0.000119131186 
0.0001046090336 
0.0001235704938 
8.750662053e-05 
8.636577247e-05 
0.0001351836615 
0.0001316031483 
0.0001294305035 
0.0001421312234 
9.833293844e-05 
0.000118063031 
9.949699842e-05 
0.0001166821786 
8.893877228e-05 
0.0001015265126 
9.422403452e-05 
0.0001747205965 
0.0001220507424 
0.0001233183394 
0.0001675797728 
0.0001058837876 
0.0001127315646 
9.842034772e-05 
0.0001001468984 
9.863952199e-05 
0.0001005841939 
9.406217341e-05 
0.0001478175609 
0.0001220903142 
0.0001171138246 
0.0001172066329 
0.0001274398726 
0.0001087629183 
0.0001066860987 
0.0001176891831 
8.887297623e-05 
0.0001355515286 
0.0001125151608 
0.0001670462106 
0.0001168264263 
0.0001172651132 
0.0001125519306 
0.0001172386158 
0.0001018510252 
0.0001001815025 
0.0001143168959 
0.0001027654778 
0.0001084167135 
0.000106234461 
0.0001372591253 
0.0001180675308 
0.0001308783254 
0.0001241394977 
0.0001339771425 
0.0001255321627 
0.0001109990403 
0.0001010142115 
9.687466452e-05 
0.0001037938371 
9.37405317e-05 
0.0001314181306 
0.0001306070533 
0.0001280208264 
0.0001231151063 
0.0001062161242 
0.0001787259396 
0.0001057907373 
0.0001160539161 
8.966854368e-05 
0.0001021153402 
9.645542377e-05 
0.0001659800535 
0.000121925427 
0.0001193777286 
0.0001110199056 
0.0001138579265 
0.000154267069 
8.933226737e-05 
0.0001023582594 
8.396924695e-05 
0.0001169430073 
0.0001240539004 
0.0001503679401 
0.0001334868548 
0.0001131049326 
0.0001313552525 
0.0001342481831 
0.0001185331576 
0.0001205293478 
0.0001066337271 
0.0001408479079 
0.0001557262321 
0.0001040032841 
0.0001717488869 
0.0001280444767 
0.0001288153521 
0.0001280737827 
0.0001380747554 
0.0001106659516 
0.0001192195356 
8.496904258e-05 
0.0001119189112 
9.96669861e-05 
0.0001004120155 
0.0001317096446 
0.0001277424902 
0.0001348396537 
0.0001241408088 
0.0001090017013 
0.0001037791509 
9.792527419e-05 
0.0001002315737 
0.0001103751117 
9.946285026e-05 
0.0001363635998 
0.0001369913607 
0.0001192725713 
0.0001249515468 
0.0001016755736 
0.0001195562018 
0.000153338065 
0.0001116747738 
9.535615892e-05 
0.0001023870385 
0.0001125794222 
0.000112918415 
0.0001547653541 
0.000130853853 
0.0001320061167 
0.0001083455953 
0.0001159659525 
0.0001152340192 
0.0001022931479 
0.0001014221401 
8.596217377e-05 
0.0001270781602 
8.742490662e-05 
0.0001472180464 
0.000135391472 
0.000120868318 
0.0001093358414 
0.000118868519 
0.0001176494884 
0.0001316497646 
0.0001299348218 
0.0001017552111 
9.198785313e-05 
8.996031003e-05 
0.00014182766 
0.0001177115097 
0.0001111968247 
0.0001230997683 
0.0001722721891 
0.0001169092712 
0.000134495598 
8.941834322e-05 
9.505315474e-05 
0.0001647124255 
0.000283988716 
0.0001621141906 
0.0001263494057 
0.0002145192029 
0.0001145111899 
0.0001236829599 
0.0001664615664 
0.0001202922848 
9.611181226e-05 
0.0001095588486 
8.463331257e-05 
9.563352489e-05 
0.000144013884 
0.0001483188354 
0.0001094534778 
0.000122155701 
0.0001210348491 
0.0001044950864 
0.0001078675813 
0.0001032214382 
9.961906638e-05 
9.103451459e-05 
9.830632163e-05 
0.0001428884796 
0.0001560083104 
0.0001432162878 
0.0001040949022 
0.0001218236132 
0.0001213876045 
0.0001265237031 
0.0001055455414 
0.0001116422864 
0.0001056567537 
0.0001013209025 
0.0001412335713 
0.0001234220428 
0.0001158398754 
0.0001908286904 
0.0001305432343 
9.468841443e-05 
0.0001314451472 
0.0001066762013 
9.231746225e-05 
0.0001320064429 
0.0001416455305 
0.0001301505853 
0.0001320263234 
0.0001204153722 
0.0001867934278 
0.0001172636761 
0.0001070356979 
0.0001262075949 
0.0001075181191 
0.0001254408422 
0.000418459367 
9.719817626e-05 
0.0001199572951 
0.000131846911 
0.000122413876 
0.0001177939765 
0.0001083733506 
0.0001118868548 
0.000100529269 
9.130213697e-05 
0.000118933019 
9.374346697e-05 
0.0001483736528 
0.000140466767 
0.0001264607165 
0.0001396180665 
0.0001122621781 
0.0001265899526 
0.0001158224054 
0.0001009474759 
0.0001071545944 
0.0001075841048 
9.652947858e-05 
0.0001080641829 
0.0002023946874 
0.0003620542083 
0.0001255821051 
9.854056953e-05 
0.000111598243 
0.0001067985927 
9.453930369e-05 
0.0001118850278 
9.375939144e-05 
0.0001049155743 
9.83852804e-05 
0.0001412161981 
0.0001196276795 
0.0001165894818 
0.0001105470275 
0.000113346073 
0.0001210791926 
0.0001073103101 
0.0001072660465 
9.627866192e-05 
0.0001005505332 
9.763188542e-05 
0.000123639374 
0.0001113509271 
0.0001670762527 
0.0001396239539 
0.0001151053889 
9.820280018e-05 
0.0001006547271 
0.0001048321367 
0.0003294333957 
9.173531228e-05 
0.0001024618414 
0.0001408200067 
0.0001402411665 
0.0002211412726 
9.380123137e-05 
0.0001171286501 
0.0001220746301 
0.0001063346203 
0.0001024287738 
9.928097018e-05 
0.0001005496414 
9.408989235e-05 
0.0001397780771 
0.0001479853781 
0.0001432265782 
0.0001187854768 
0.0001109942717 
0.0001196456506 
0.000101247164 
0.0001161763418 
0.0001521808067 
8.564322341e-05 
0.0001679263367 
0.0001388060345 
0.000117235839 
0.0001161420544 
0.0001172641814 
0.0001053959385 
0.0001142137674 
0.0001132210569 
0.0001013754487 
0.0001401602441 
0.0001756853334 
0.0003578713634 
0.0001424141278 
0.000113164777 
0.0001204209678 
0.0001624123522 
0.0001126092597 
0.0001016173968 
0.0001096084298 
0.0001108888204 
9.029168816e-05 
0.000261341847 
9.915437292e-05 
0.000283283549 
0.0001120288365 
0.0001645828024 
0.0001082550209 