# vtk DataFile Version 3.0
MOAB 4.9.0
ASCII
DATASET UNSTRUCTURED_GRID
POINTS 262 double
0 -0.5 0.5
0 0.5 0.5
0 -0.1666666667 0.5
0 0.1666666667 0.5
0 0.5 -0.5
0 0.5 0.1666666667
0 0.5 -0.1666666667
0 -0.5 -0.5
0 0.1666666667 -0.5
0 -0.1666666667 -0.5
0 -0.5 -0.1666666667
0 -0.5 0.1666666667
0 -0.02126765447 0.1601017923
0 0.2660948883 -0.008333797701
0 0.05137122643 -0.20496936
0 -0.2273126189 -0.1089735135
0 0.2822987801 0.2636869323
0 0.2968265563 -0.2759939649
5 -0.5 -0.5
0.3571428571 -0.5 -0.5
0.7142857143 -0.5 -0.5
1.071428571 -0.5 -0.5
1.428571429 -0.5 -0.5
1.785714286 -0.5 -0.5
2.142857143 -0.5 -0.5
2.5 -0.5 -0.5
2.857142857 -0.5 -0.5
3.214285714 -0.5 -0.5
3.571428571 -0.5 -0.5
3.928571429 -0.5 -0.5
4.285714286 -0.5 -0.5
4.642857143 -0.5 -0.5
5 -0.5 0.5
5 -0.5 0.1666666667
5 -0.5 -0.1666666667
4.642857143 -0.5 0.5
4.285714286 -0.5 0.5
3.928571429 -0.5 0.5
3.571428571 -0.5 0.5
3.214285714 -0.5 0.5
2.857142857 -0.5 0.5
2.5 -0.5 0.5
2.142857143 -0.5 0.5
1.785714286 -0.5 0.5
1.428571429 -0.5 0.5
1.071428571 -0.5 0.5
0.7142857143 -0.5 0.5
0.3571428571 -0.5 0.5
0.5730954936 -0.5 -0.2128042084
0.8548922315 -0.5 -0.181871047
1.192683156 -0.5 -0.1693893347
1.544585838 -0.5 -0.1656683665
1.900583149 -0.5 -0.1649258149
2.257486219 -0.5 -0.1647871715
2.614578253 -0.5 -0.1647610589
2.971676066 -0.5 -0.164725707
3.328576127 -0.5 -0.1645319481
3.683801975 -0.5 -0.1625922069
4.033300393 -0.5 -0.154573658
4.366532612 -0.5 -0.1230920182
4.678919209 -0.5 0.015395186
4.422286613 -0.5 0.2155370693
4.139015967 -0.5 0.1852518631
3.800129096 -0.5 0.1730677982
3.447752659 -0.5 0.169271973
3.091787007 -0.5 0.1682649822
2.734892622 -0.5 0.1680568044
2.377814474 -0.5 0.168010879
2.020769892 -0.5 0.1679610758
1.664084672 -0.5 0.167706261
1.309762646 -0.5 0.1654410964
0.9616590995 -0.5 0.1568794061
0.6298929884 -0.5 0.1247601451
0.3195456994 -0.5 -0.01467401054
5 0.5 -0.5
4.642857143 0.5 -0.5
4.285714286 0.5 -0.5
3.928571429 0.5 -0.5
3.571428571 0.5 -0.5
3.214285714 0.5 -0.5
2.857142857 0.5 -0.5
2.5 0.5 -0.5
2.142857143 0.5 -0.5
1.785714286 0.5 -0.5
1.428571429 0.5 -0.5
1.071428571 0.5 -0.5
0.7142857143 0.5 -0.5
0.3571428571 0.5 -0.5
5 -0.1666666667 -0.5
5 0.1666666667 -0.5
4.427482542 0.212376311 -0.5
4.145321867 0.1817252272 -0.5
3.807395339 0.1693335081 -0.5
3.455447289 0.1656452637 -0.5
3.099424231 0.1649206691 -0.5
2.742515319 0.1647861052 -0.5
2.385421931 0.1647609628 -0.5
2.028323286 0.1647263352 -0.5
1.671420249 0.1645354521 -0.5
1.316179988 0.1626101445 -0.5
0.966809124 0.1545754932 -0.5
0.6334121677 0.123143061 -0.5
4.681119171 0.01417429912 -0.5
0.5777203964 -0.2154823677 -0.5
0.8609921736 -0.1852297285 -0.5
1.199886636 -0.1730596774 -0.5
1.552246121 -0.1692667849 -0.5
1.908212032 -0.1682633786 -0.5
2.265107175 -0.1680564688 -0.5
2.622186033 -0.1680111929 -0.5
2.979233115 -0.1679631651 -0.5
3.335940252 -0.1677234563 -0.5
3.690280139 -0.1654728946 -0.5
4.038466876 -0.1569574459 -0.5
4.370160314 -0.1247802681 -0.5
0.3209030464 -0.01538988445 -0.5
5 0.5 0.5
5 0.1666666667 0.5
5 -0.1666666667 0.5
5 0.5 -0.1666666667
5 0.5 0.1666666667
5 0.02126765447 0.1601017923
5 -0.2660948883 -0.008333797701
5 -0.05137122643 -0.20496936
5 0.2273126189 -0.1089735135
5 -0.2822987801 0.2636869323
5 -0.2968265563 -0.2759939649
0.3571428571 0.5 0.5
0.7142857143 0.5 0.5
1.071428571 0.5 0.5
1.428571429 0.5 0.5
1.785714286 0.5 0.5
2.142857143 0.5 0.5
2.5 0.5 0.5
2.857142857 0.5 0.5
3.214285714 0.5 0.5
3.571428571 0.5 0.5
3.928571429 0.5 0.5
4.285714286 0.5 0.5
4.642857143 0.5 0.5
4.427482542 -0.212376311 0.5
4.145321867 -0.1817252272 0.5
3.807395339 -0.1693335081 0.5
3.455447289 -0.1656452637 0.5
3.099424231 -0.1649206691 0.5
2.742515319 -0.1647861052 0.5
2.385421931 -0.1647609628 0.5
2.028323286 -0.1647263352 0.5
1.671420249 -0.1645354521 0.5
1.316179988 -0.1626101445 0.5
0.966809124 -0.1545754932 0.5
0.6334121677 -0.123143061 0.5
4.681119171 -0.01417429912 0.5
0.5777203964 0.2154823677 0.5
0.8609921736 0.1852297285 0.5
1.199886636 0.1730596774 0.5
1.552246121 0.1692667849 0.5
1.908212032 0.1682633786 0.5
2.265107175 0.1680564688 0.5
2.622186033 0.1680111929 0.5
2.979233115 0.1679631651 0.5
3.335940252 0.1677234563 0.5
3.690280139 0.1654728946 0.5
4.038466876 0.1569574459 0.5
4.370160314 0.1247802681 0.5
0.3209030464 0.01538988445 0.5
0.5730954936 0.5 0.2128042084
0.8548922315 0.5 0.181871047
1.192683156 0.5 0.1693893347
1.544585838 0.5 0.1656683665
1.900583149 0.5 0.1649258149
2.257486219 0.5 0.1647871715
2.614578253 0.5 0.1647610589
2.971676066 0.5 0.164725707
3.328576127 0.5 0.1645319481
3.683801975 0.5 0.1625922069
4.033300393 0.5 0.154573658
4.366532612 0.5 0.1230920182
4.678919209 0.5 -0.015395186
4.422286613 0.5 -0.2155370693
4.139015967 0.5 -0.1852518631
3.800129096 0.5 -0.1730677982
3.447752659 0.5 -0.169271973
3.091787007 0.5 -0.1682649822
2.734892622 0.5 -0.1680568044
2.377814474 0.5 -0.168010879
2.020769892 0.5 -0.1679610758
1.664084672 0.5 -0.167706261
1.309762646 0.5 -0.1654410964
0.9616590995 0.5 -0.1568794061
0.6298929884 0.5 -0.1247601451
0.3195456994 0.5 0.01467401054
4.790258884 -0.3023659885 -0.3400474489
4.774604797 -0.2870275676 -0.1201573387
4.78229475 -0.03532897681 -0.06137201563
4.53287077 -0.2840735614 -0.2344155014
4.724551201 -0.02602755092 0.2102630883
4.577346802 -0.2817166746 0.1625784636
4.347290516 0.3265282214 0.2576821744
4.106458664 0.225063175 0.04116461053
4.351713181 0.137646541 0.04523732513
4.071191788 -0.06263770908 0.2224824876
4.334873676 -0.1762854606 0.2885322571
4.729424953 0.2329734266 0.189553082
1.31618011 0.05420336127 -0.1666666716
0.4471223354 0.21319592 -0.2314330339
0.6518213153 0.2951312661 0.1369820833
0.2018185556 0.1012089849 0.03964287788
0.2052669674 0.2780166566 -0.2782151699
4.696824074 0.2538617253 -0.2177402675
4.325645924 0.1939014345 -0.2964115143
4.366533279 -0.1666666716 -0.04103089869
4.791401863 -0.3136140108 0.2845866084
0.2188535184 0.3395372331 0.3516940475
0.3993776441 0.1651958227 0.2658503652
3.105012655 -0.05524018779 0.1694740057
2.709705591 -0.05532079563 0.1955540329
0.6380226612 -0.03820617497 0.1762816757
0.2922720313 -0.2452373952 0.161174953
2.30585289 -0.05436520651 0.2213166952
2.849031925 0.1666935384 0.2739420533
2.52547884 0.2269819379 0.06408610195
3.023747444 0.2392411679 0.07491210848
0.6334122419 0.04104765132 -0.1666669846
0.7737213373 0.2664768696 -0.2682875395
0.9289851189 0.2224793285 0.06270851195
0.6527149677 -0.2944671512 -0.1385660917
0.3732252419 -0.2083702385 -0.2683055699
0.6710007787 -0.3204292655 0.2577384412
0.9289851189 -0.2224796414 -0.06270851195
0.9668091536 -0.05152530968 0.1666663587
2.257486105 0.1666663587 0.05492914096
2.028323174 0.0549089089 -0.1666666716
2.257486105 -0.1666666716 -0.05492882431
1.671420217 0.05484505743 -0.1666666716
1.900583029 0.1666663587 0.05497528985
2.028323174 -0.0549089089 0.1666663587
2.30585289 0.05436520651 -0.2213170081
1.192683101 -0.1666666716 -0.05646320432
0.9668091536 0.05152530968 -0.1666666716
3.729218006 0.05647300184 -0.222043097
3.455447435 0.05521490052 -0.1666666716
3.937624454 0.28203246 -0.203332454
4.091478825 0.05386006832 -0.2379821241
4.106458664 -0.225063175 -0.04116461053
3.729218006 -0.05647331849 0.222043097
3.722620249 0.1945924461 0.05265633762
3.683801889 -0.1666666716 -0.05419735238
3.328576326 -0.1666666716 -0.05484410748
3.099423885 0.05497339368 -0.1666666716
3.368109703 0.194249779 0.0542874448
2.669396162 0.060121499 -0.2254162729
2.96284771 -0.1818236411 -0.06656374782
1.671420217 -0.05484537035 0.1666663587
1.31618011 -0.05420336127 0.1666663587
1.544585824 0.1666663587 0.05522248521
1.900583029 -0.1666666716 -0.05497528985
1.544585824 -0.1666666716 -0.05522280186
3.455447435 -0.05521521717 0.1666663587
1.192683101 0.1666663587 0.05646288767
2.555386782 -0.2486462891 -0.05410536751
4.225215435 -0.2677700818 -0.2658177912
CELLS 875 4375
4 123 192 193 194
4 122 123 193 194
4 34 122 126 193
4 31 60 192 195
4 122 196 194 197
4 198 199 200 201
4 117 118 152 196
4 152 196 197 202
4 117 196 152 203
4 18 34 126 192
4 88 123 102 192
4 18 126 88 192
4 31 192 102 195
4 99 100 105 204
4 191 205 206 207
4 87 205 191 208
4 6 4 87 208
4 119 124 178 209
4 75 178 179 209
4 194 200 209 210
4 124 194 203 209
4 62 141 36 202
4 59 197 195 211
4 35 140 152 212
4 60 122 197 212
4 84 188 99 187
4 59 60 195 197
4 16 3 165 213
4 99 85 100 188
4 191 207 206 214
4 191 206 166 214
4 127 191 166 214
4 65 145 215 216
4 127 165 213 214
4 153 151 214 217
4 151 214 217 218
4 66 146 216 219
4 220 159 221 216
4 220 215 216 222
4 159 216 146 219
4 220 160 159 216
4 120 124 121 203
4 153 166 128 206
4 206 217 207 223
4 206 223 205 224
4 206 223 224 225
4 154 217 206 225
4 153 214 206 217
4 217 218 223 226
4 73 226 48 227
4 217 228 229 230
4 64 39 38 143
4 20 103 48 226
4 103 226 223 227
4 207 217 218 223
4 186 185 171 231
4 71 46 45 150
4 177 198 200 203
4 47 151 46 228
4 72 47 46 228
4 108 232 107 233
4 186 234 232 235
4 231 232 233 236
4 108 232 233 237
4 87 190 191 205
4 190 206 205 224
4 103 223 101 227
4 229 230 238 239
4 217 226 223 229
4 217 223 225 230
4 101 205 223 224
4 207 223 218 227
4 193 194 195 197
4 125 121 122 196
4 194 200 203 209
4 121 124 194 203
4 102 192 194 195
4 65 145 144 215
4 93 240 181 241
4 242 199 240 243
4 113 243 240 244
4 199 245 246 247
4 181 241 240 246
4 215 248 249 250
4 182 249 241 250
4 183 249 222 251
4 16 191 213 214
4 215 249 222 250
4 65 215 64 248
4 110 248 249 252
4 110 248 111 249
4 163 199 198 201
4 200 211 201 244
4 180 177 199 200
4 96 184 185 237
4 76 77 91 180
4 156 253 149 254
4 69 149 253 254
4 234 253 235 255
4 69 253 68 256
4 69 254 253 257
4 234 256 253 257
4 199 244 201 245
4 199 240 244 247
4 63 245 244 247
4 200 243 211 244
4 62 211 59 244
4 107 234 106 256
4 99 187 204 234
4 99 204 106 234
4 187 234 186 235
4 187 204 234 255
4 234 235 253 256
4 160 215 145 216
4 62 63 142 245
4 220 222 160 215
4 160 222 174 250
4 174 222 183 250
4 160 215 222 250
4 184 183 222 251
4 63 143 245 258
4 163 162 199 245
4 58 244 112 247
4 63 244 58 247
[...]
CELL_DATA 875
SCALARS TALLY_TAG double 1
LOOKUP_TABLE default
0.03727441598 
0.03915831738 
0.04083364383 
0.03841547859 
0.04219565287 
0.05443062855 
0.04180458943 
0.04524241131 
0.03934779787 
0.03320596537 
0.03442171003 
0.0378739274 
0.0498342785 
0.1980604309 
0.2781062704 
0.2904019242 
0.3035856889 
0.03750229517 
0.04056509976 
0.04461203388 
0.03624981589 
0.0516168169 
0.04960082172 
0.0380941357 
0.04324546322 
0.1958056031 
0.04369830223 
0.3154619675 
0.2146293763 
0.2912360564 
0.2523191537 
0.2665678832 
0.1096060598 
0.3075136152 
0.2732728715 
0.2624085722 
0.1191337577 
0.1162993209 
0.1033571078 
0.1242161427 
0.1250834188 
0.03364235081 
0.2527095522 
0.2890075056 
0.2710945785 
0.2602414508 
0.2637197685 
0.2734611071 
0.2812713716 
0.2960877045 
0.2508176036 
0.08029557084 
0.2588535957 
0.280218939 
0.2898113062 
0.1447410088 
0.247608237 
0.04849824897 
0.2661175346 
0.2663268078 
0.1414586386 
0.1702759305 
0.1568511318 
0.1366271226 
0.2847975437 
0.2637645742 
0.2743879108 
0.2365755531 
0.2599239577 
0.2613448617 
0.2643678923 
0.2852125043 
0.03720306504 
0.04612078273 
0.048114887 
0.0386490623 
0.04075477329 
0.1047243817 
0.07872657904 
0.06578807612 
0.05881904344 
0.06914393363 
0.07369871677 
0.09338538516 
0.07404303221 
0.09822941646 
0.2903815841 
0.09726189993 
0.09071286064 
0.08603123192 
0.08675277393 
0.06365476096 
0.05434899972 
0.05005658022 
0.1295825134 
0.05335885661 
0.2046092447 
0.1981593055 
0.1955171366 
0.1713178196 
0.2019921624 
0.183987541 
0.06676484458 
0.05885887377 
0.0671968288 
0.0506545874 
0.04973142697 
0.167814898 
0.1973491808 
0.1991849403 
0.1739885327 
0.1980378754 
0.1800388908 
0.100894649 
0.05910525833 
0.08987501474 
0.09239731563 
0.08978532216 
0.09390668871 
0.1005902489 
0.07726272693 
0.06688912929 
0.06154134504 
0.06391465954 
0.05955656281 
0.07408327797 
0.04743356601 
0.0545779511 
0.05582783062 
0.1392026676 
0.1378743099 
0.2700608147 
0.1770769135 
0.1477532214 
0.1485197844 
0.151238502 
0.1737814959 
0.1721436117 
0.06707281843 
0.1805336986 
0.1735979673 
0.1841485654 
0.2662802956 
0.2260835437 
0.2153191893 
0.2079147036 
0.2055998231 
0.230484855 
0.2157029489 
0.2885975014 
0.3040622275 
0.2906321549 
0.2653192175 
0.2889455323 
0.282757617 
0.1338194322 
0.1181213953 
0.1117160861 
0.1175086213 
0.1284136327 
0.1025554232 
0.1042111329 
0.1362255969 
0.104384243 
0.1036325518 
0.1008532825 
0.1182695307 
0.1048382926 
0.1178008218 
0.1238710519 
0.2906584091 
0.05666329909 
0.2431560149 
0.2429768562 
0.2699234598 
0.3003219651 
0.2786301504 
0.2426878683 
0.238015884 
0.2472051172 
0.2274348658 
0.2633741551 
0.2828095461 
0.2647209011 
0.2497660352 
0.2749512512 
0.2706015203 
0.2744004642 
0.2738585497 
0.3073788471 
0.2910184333 
0.2976482459 
0.2982705335 
0.2439818488 
0.2809016053 
0.2707394389 
0.2693365989 
0.03258103583 
0.03781689489 
0.0399323838 
0.03488713053 
0.05156433177 
0.04635612108 
0.04444582183 
0.04132298676 
0.05967651655 
0.03590289219 
0.03820585149 
0.06442902528 
0.1503162261 
0.1339324228 
0.1309420866 
0.05008933061 
0.03937627866 
0.06406842279 
0.0621555711 
0.04815603342 
0.04251027694 
0.05624413901 
0.05015591926 
0.04581518636 
0.04547089005 
0.04683261024 
0.1659711113 
0.1409398118 
0.152478924 
0.1072254966 
0.09212135013 
0.171067661 
0.1424502678 
0.1344509903 
0.1540712471 
0.1594086916 
0.1612777549 
0.07855072289 
0.08549077433 
0.08558116326 
0.09520239023 
0.08971922325 
0.08164427277 
0.03370728554 
0.08057539457 
0.09230709514 
0.1404255927 
0.1399481818 
0.1043767524 
0.1388077094 
0.1526326195 
0.1557260407 
0.1329351493 
0.1710367761 
0.1494964571 
0.05681749312 
0.06767979914 
0.04974783329 
0.06127569134 
0.1074066756 
0.07388954361 
0.07317946657 
0.04460901168 
0.06969451294 
0.06135650271 
0.03991219579 
0.05980385403 
0.1668792172 
0.1869100792 
0.1779987547 
0.1834262289 
0.1057849964 
0.1801572324 
0.1154726635 
0.1300365692 
0.183307614 
0.2399283727 
0.1948530216 
0.275903721 
0.255868545 
0.2257525872 
0.2259993382 
0.251703293 
0.2321698627 
0.1621974214 
0.220228015 
0.2068245391 
0.1916618228 
0.1940155949 
0.2077038435 
0.1968804688 
0.07574318041 
0.07221796786 
0.04355273968 
0.1313032943 
0.07086224082 
0.06074056008 
0.05301624187 
0.04503882135 
0.0650311088 
0.06353282296 
0.06258375339 
0.1028181245 
0.2834405957 
0.2287338514 
0.08997945153 
0.08746622319 
0.1014279657 
0.1111685977 
0.105021214 
0.0943513919 
0.07955449837 
0.07943517753 
0.1249757259 
0.08206929562 
0.07991433874 
0.0647477387 
0.05852953006 
0.04641200655 
0.05678929049 
0.04642375982 
0.06051655882 
0.07619480933 
0.05013001202 
0.05500675775 
0.03960172046 
0.1953478692 
0.06533538603 
0.04684343243 
0.2157696851 
0.2113668787 
0.1542668308 
0.2050815472 
0.211846149 
0.1961657188 
0.1869275143 
0.1927161407 
0.1365550753 
0.06643818764 
0.06736928181 
0.09282229735 
0.06915941442 
0.08181649293 
0.08581447415 
0.08023206563 
0.07323281876 
0.2227012591 
0.0830732964 
0.2516202217 
0.298199654 
0.2984829728 
0.2947324514 
0.3061059579 
0.29813962 
0.2656574819 
0.2612597442 
0.2989423958 
0.2971707805 
0.1973562469 
0.2711631999 
0.1642083052 
0.2549216619 
0.2921670173 
0.2492517106 
0.2502267421 
0.2539027921 
0.256194123 
0.21632848 
0.2118493104 
0.2313728056 
0.2271541233 
0.1574309613 
0.2255147098 
0.2199609071 
0.2291780495 
0.2345105341 
0.2239808997 
0.2480260388 
0.2421592508 
0.2282396044 
0.1553602979 
0.2086009621 
0.2878760516 
0.2366932445 
0.04667237659 
0.04089813281 
0.04726727631 
0.04836931763 
0.05509077904 
0.06093914027 
0.04756635682 
0.3058339035 
0.269503141 
0.06376116102 
0.1152761091 
0.1431927872 
0.2171522979 
0.2126262719 
0.2006638776 
0.05260952699 
0.202802028 
0.2875592348 
0.3053887598 
0.2864051896 
0.2778201167 
0.27287446 
0.2626017444 
0.1060032669 
0.05161124347 
0.1036498658 
0.2900975953 
0.04056680602 
0.03977146519 
0.06401633836 
0.03676202151 
0.03214433114 
0.05907216254 
0.05769601301 
0.04909435888 
0.1355478925 
0.04197599001 
0.2404267369 
0.1228523318 
0.2769993076 
0.2603032107 
0.2774551273 
0.1241749636 
0.1631681111 
0.2207383628 
0.04780206837 
0.1687700889 
0.2912758776 
0.3021731877 
0.1928215736 
0.2384528498 
0.201006769 
0.2162947081 
0.2657938164 
0.1509173659 
0.1427743005 
0.1489450735 
0.1514757417 
0.05612295373 
0.09493467859 
0.106894994 
0.09013306624 
0.2934959515 
0.1332349348 
0.3027571314 
0.04830659789 
0.06837394633 
0.2338780009 
0.05294532836 
0.05322705435 
0.07370917034 
0.08266127798 
0.3043454738 
0.07237046916 
0.08927265405 
0.07037417664 
0.06302078005 
0.07168616233 
0.07931129451 
0.06285045126 
0.1038654528 
0.09043978896 
0.3095972937 
0.09075151889 
0.08501602318 
0.2830817737 
0.1057610128 
0.290866053 
0.08559902628 
0.1224288878 
0.1488965401 
0.09865809458 
0.1163417515 
0.1194780934 
0.2365296461 
0.2614819891 
0.2733367301 
0.2467881356 
0.2889902822 
0.2693704756 
0.240550524 
0.29052637 
0.2880323996 
0.2544096018 
0.278926546 
0.289449191 
0.2588800725 
0.2701976378 
0.2987614863 
0.213408958 
0.2423854533 
0.221913763 
0.182542336 
0.2745889267 
0.2574955164 
0.2595956322 
0.1705870923 
0.04960006463 
0.1844064079 
0.1978379664 
0.04261068615 
0.2019487036 
0.1952866046 
0.1313255452 
0.1382618477 
0.1743600298 
0.05086645768 
0.0492152545 
0.0524735044 
0.05731489809 
0.04862337879 
0.281326371 
0.08597879471 
0.0840914901 
0.07348597771 
0.05282396541 
0.09118307508 
0.03657210286 
0.2167169398 
0.03898258174 
0.07428955821 
0.0566611431 
0.06604474406 
0.0357118587 
0.04149157492 
0.04583148342 
0.03891944783 
0.2294903098 
0.04200951289 
0.03364452904 
0.07895750105 
0.09774137153 
0.06202147773 
0.03605444442 
0.1484043803 
0.1599810042 
0.04099167667 
0.1230182319 
0.1555286829 
0.1172353814 
0.1168237817 
0.1121196935 
0.04404008699 
0.07629301574 
0.1228694196 
0.1440247245 
0.3091880368 
0.04682645611 
0.04708075914 
0.05231848744 
0.04387951456 
0.05688595539 
0.07188278906 
0.06095222813 
0.09640815448 
0.05367577515 
0.07375650532 
0.1045560978 
0.1425870414 
0.1217092584 
0.1451985806 
0.1464504883 
0.1200379889 
0.08493736489 
0.1916789474 
0.1891568546 
0.1620057294 
0.213155897 
0.07764619019 
0.139086288 
0.1938944254 
0.2209698199 
0.07848128059 
0.2490440294 
0.2257192988 
0.04277256592 
0.128585084 
0.3116837655 
0.2189666758 
0.2425140259 
0.2185541096 
0.1619869386 
0.2602339711 
0.1442425611 
0.1284295286 
0.07544817973 
0.08989699864 
0.1065230056 
0.1176110298 
0.132661049 
0.07911141667 
0.08198040657 
0.05295854329 
0.09018439024 
0.03817938371 
0.05374313763 
0.04558340894 
0.04553071967 
0.07356224439 
0.04070064737 
0.1014641618 
0.1183831417 
0.09782325697 
0.311272374 
0.1611119683 
0.08162586917 
0.1598500972 
0.1568722403 
0.1755841713 
0.1588283867 
0.1879693159 
0.2181039258 
0.1465974375 
0.1025564203 
0.2787381371 
0.1392285659 
0.2108445473 
0.03829205828 
0.2541034408 
0.1673107157 
0.1879526567 
0.241218385 
0.1487418567 
0.1321560476 
0.160545537 
0.2125933451 
0.3146297936 
0.3029594518 
0.1567081462 
0.04337045716 
0.03537323001 
0.2534562634 
0.0874344654 
0.08451154573 
0.1566603769 
0.03022371135 
0.2639705377 
0.1087292617 
0.06099223823 
0.1205823032 
0.07951485555 
0.03882673938 
0.2648564513 
0.04484838962 
0.2498508399 
0.07691242703 
0.09756423909 
0.2956795954 
0.03393733606 
0.05143729912 
0.04309098619 
0.2352020524 
0.03693762953 
0.03911590074 
0.03848196958 
0.034617063 
0.05692616632 
0.03412277845 
0.03908919711 
0.03637856716 
0.05204318623 
0.05072994765 
0.03591813193 
0.04213795447 
0.04562070246 
0.03374443685 
0.02909852432 
0.04267374305 
0.04157319169 
0.03878957671 
0.06311425597 
0.04445612471 
0.03945083749 
0.04057245728 
0.03877441579 
0.05991014866 
0.04086718151 
0.05520815093 
0.04948581744 
0.04920512091 
0.04828101719 
0.07994461043 
0.1645073648 
0.05883915918 
0.07460233453 
0.1980899646 
0.07994243469 
0.1021417031 
0.04872096089 
0.05321754736 
0.1097701419 
0.05061275683 
0.1118203599 
0.09022943472 
0.08733766173 
0.08105831181 
0.06638895402 
0.1730433151 
0.2370472133 
0.196775269 
0.2073407059 
0.2013278511 
0.05005114405 
0.2213801494 
0.2275069088 
0.2356845069 
0.2556364068 
0.2529420368 
0.247917872 
0.2670718725 
0.2734589753 
0.2160130872 
0.1944273696 
0.1670800607 
0.03527303525 
0.1514553518 
0.2089184795 
0.2261445582 
0.1460551717 
0.1196254881 
0.1440724033 
0.2086001046 
0.2225825827 
0.1749701109 
0.1172632668 
0.1548409884 
0.05027875558 
0.06453247644 
0.08605457186 
0.07103280931 
0.08152752019 
0.05098370477 
0.05338040742 
0.3060264374 
0.3014202436 
0.2831132043 
0.2518712896 
0.09403221716 
0.04404562867 
0.09207506982 
0.1168878162 
0.05579565334 
0.1032944265 
0.1028541659 
0.04666055081 
0.1878650478 
0.1802491609 
0.2790233134 
0.2828714477 
0.2877214443 
0.2930977356 
0.2860858778 
0.303584578 
0.04354580232 
0.2869018359 
0.2266544371 
0.05864336932 
0.2687237273 
0.2939612234 
0.155791282 
0.2263330607 
0.1309416918 
0.2943480479 
0.1449549033 
0.1456232302 
0.1150118415 
0.2400941096 
0.131212174 
0.1066997116 
0.2938438849 
0.2422410908 
0.2085060667 
0.0623395915 
0.06353277422 
0.09769403639 
0.03782599369 
0.06771852308 
0.1078374116 
0.04626961645 
0.04954488198 
0.03640764624 
0.03731124057 
0.1907940154 
0.2398999493 
0.1563858978 
0.1860092788 
0.1337025436 
0.13387421 
0.1161227564 
0.1141347232 
0.07952446601 
0.07096436568 
0.04620332787 
0.03934960085 
0.1189201423 
0.04462998772 
0.04088176951 
0.05014635635 
0.04721457585 
0.06227507894 
0.07536968213 
0.06077220189 
0.08188515665 
0.0963648813 
0.09008161383 
0.07433223605 
0.1148229484 
0.0954713829 
0.1137427381 
0.1493830998 
0.04969670195 
0.1418809524 
0.11552362 
0.2421842451 
0.2448289992 
0.3142022103 
0.2564858797 
0.06002962183 
0.1727342647 
0.2870503642 
0.2928486629 
0.2920937338 
0.3018163219 
0.2550476262 
0.2641764297 
0.2902561184 
0.2575909986 
0.05421343369 
0.04239615863 
0.1809524071 
0.04831090352 
0.3016797616 
0.09995934797 
0.1890819653 
0.06473342835 
0.1384713033 
0.1086200396 
0.04894979396 
0.0911194299 
0.0562087225 
0.03939434945 
0.03501080706 
0.1259455213 
0.04375711672 
0.04109542788 
0.03688332114 
0.04537367846 
0.04974912637 
0.05353030228 
0.05591752298 
0.05464208204 
0.07476623812 
0.1047816923 
0.2255238763 
0.04880783256 
0.1616107417 
0.2362742255 
0.2649268815 
0.0443944548 
0.1737978737 
0.3065335753 
0.2757427817 
0.05965842318 
0.0654793251 
0.06649883655 
0.05884325651 
0.05448655027 
0.05271330888 
0.0473770107 
0.1199143902 
0.113353377 
0.1198637449 
0.1158551007 
0.1046496783 
SCALARS ERROR_TAG double 1
LOOKUP_TABLE default
0.1051572525 
0.1111725092 
0.1123263191 
0.07885111461 
0.08724866388 
0.07891304494 
0.08753952963 
0.08975406036 
0.07935971298 
0.1075262833 
0.088194416 
0.1054604249 
0.07350006927 
0.03553312818 
0.02695516717 
0.02760364471 
0.03499296853 
0.1021047621 
0.07887806815 
0.07986311066 
0.08312764348 
0.06453339103 
0.07452994283 
0.08447391626 
0.09400724608 
0.03511444618 
0.08089926116 
0.0378488915 
0.03326026457 
0.03275049743 
0.03774699083 
0.02757214701 
0.04227782027 
0.0307793419 
0.03066116071 
0.02877023762 
0.04140906032 
0.04835117013 
0.06604262422 
0.04645816634 
0.06525982621 
0.08359789434 
0.03094092529 
0.02903583957 
0.0341134973 
0.03384398352 
0.02937317204 
0.03214347346 
0.02677829383 
0.03616744124 
0.03698561298 
0.05600797081 
0.03106081315 
0.03110750288 
0.02936224844 
0.04198941718 
0.03112939081 
0.08752099353 
0.03346887357 
0.03873792219 
0.04251538416 
0.03993220705 
0.04188040976 
0.0453647934 
0.02711962471 
0.03186887743 
0.02930422646 
0.03927973683 
0.03187273424 
0.03565496903 
0.03931751579 
0.02483566024 
0.09059163146 
0.08668223371 
0.0731569786 
0.08152005578 
0.07577177687 
0.04356387157 
0.05182947715 
0.07820499567 
0.06284760066 
0.06372580341 
0.05888762689 
0.05286800915 
0.06021765686 
0.04744642971 
0.03598694519 
0.05652337157 
0.05415475293 
0.05421257999 
0.05451628089 
0.05854242124 
0.08578969016 
0.0754314793 
0.04006926381 
0.06998959184 
0.03468258019 
0.03117392656 
0.04589224365 
0.039481932 
0.03682340699 
0.0472942801 
0.06409358395 
0.06455463131 
0.05968749201 
0.07923926458 
0.07692960126 
0.03994858779 
0.03106095457 
0.03534785317 
0.03959632884 
0.03705547996 
0.0395430954 
0.04802672735 
0.05938293512 
0.05536379473 
0.0479651375 
0.0559710927 
0.05021186978 
0.04747418608 
0.05218867003 
0.05955941964 
0.05422881425 
0.0640700934 
0.06369902853 
0.05876264357 
0.06192633602 
0.06486660759 
0.06388237175 
0.04332769869 
0.03797462497 
0.02947337758 
0.04826498487 
0.03757958745 
0.04104250532 
0.03676020805 
0.03768658491 
0.04979900269 
0.0607725954 
0.03260347464 
0.03341759757 
0.03816313698 
0.03858141853 
0.02898032294 
0.03406082001 
0.03637596752 
0.03620536972 
0.03426880803 
0.04341787696 
0.02807227423 
0.03747702409 
0.03527029592 
0.03341855633 
0.04116927953 
0.04147355563 
0.04371790987 
0.04439810955 
0.04910056572 
0.0450434763 
0.04185483141 
0.05925476616 
0.05299302959 
0.04899549493 
0.06283134209 
0.04796649275 
0.04865778506 
0.04410172963 
0.05017575388 
0.04937674118 
0.04170170469 
0.02925613996 
0.07333279144 
0.0351974711 
0.02954111881 
0.03035310112 
0.02946394811 
0.02531646794 
0.03221787295 
0.03110854297 
0.03841924962 
0.03487814435 
0.03195731092 
0.02971267702 
0.03116471994 
0.03171623672 
0.02991340952 
0.02938856532 
0.03172579446 
0.03170764019 
0.03120068722 
0.0284542958 
0.02932986712 
0.0305466848 
0.03284103427 
0.02477646498 
0.03214548605 
0.03246081486 
0.09584442011 
0.08386983474 
0.07506575673 
0.08958066987 
0.06445299737 
0.07591146257 
0.07049481454 
0.0787286534 
0.07830224001 
0.08403321882 
0.09303958722 
0.06256562593 
0.04343215722 
0.04249852524 
0.04392894498 
0.1067308559 
0.1285375417 
0.05978357852 
0.06574345904 
0.07174112752 
0.08607338238 
0.0794506203 
0.07233566646 
0.0735415699 
0.07754577246 
0.08465010865 
0.03865311284 
0.03785877062 
0.04970280028 
0.04365938931 
0.04559564662 
0.03412541505 
0.04290995201 
0.04292878781 
0.04234769979 
0.03454445737 
0.03500573279 
0.05113915739 
0.05437290191 
0.04722749205 
0.04943389475 
0.06043026093 
0.05832999747 
0.1033436861 
0.05583808348 
0.05323788997 
0.04418797043 
0.04819784649 
0.05146252927 
0.04201486064 
0.04910222654 
0.04013972446 
0.04287368582 
0.04857221178 
0.04315949666 
0.06859538663 
0.06599227416 
0.083946908 
0.07077451315 
0.04385227331 
0.06763754113 
0.05992614646 
0.08393343661 
0.05333808396 
0.06920460981 
0.08335279058 
0.06749278965 
0.03387393287 
0.03238730478 
0.0328105686 
0.03838415025 
0.04794963264 
0.03859418695 
0.04497608359 
0.04324898689 
0.03676543802 
0.03344207783 
0.03648358901 
0.03145579525 
0.03208078595 
0.03542144141 
0.03511274171 
0.03923905829 
0.03397225736 
0.04211846906 
0.04414265913 
0.03635633851 
0.03702776323 
0.04492030446 
0.04423680813 
0.03498490151 
0.05942383387 
0.06300231981 
0.09687735016 
0.04014938802 
0.0623377389 
0.08459942406 
0.07048917664 
0.07268830027 
0.05966072816 
0.05681740655 
0.05780517293 
0.04276322455 
0.03547830088 
0.03328804383 
0.06506998232 
0.05369132706 
0.04952887928 
0.04574688255 
0.04761009977 
0.05240714385 
0.06691513475 
0.05927836851 
0.04995471916 
0.07043102491 
0.05701275089 
0.0662139191 
0.07167748729 
0.08329199913 
0.07789445003 
0.09248131182 
0.06009586009 
0.05906804507 
0.07907512005 
0.06965611493 
0.08474992484 
0.03133623139 
0.0622988177 
0.08748097833 
0.03010165936 
0.03041268898 
0.0414043573 
0.03617025825 
0.03563928373 
0.03696339702 
0.03855805377 
0.04000594503 
0.04353656666 
0.06293500695 
0.0601787112 
0.06425749272 
0.06251048883 
0.05639992724 
0.04809021122 
0.05567980318 
0.05814344687 
0.03357816795 
0.06538706102 
0.0325691793 
0.02956658536 
0.02931168312 
0.02886149909 
0.03282569838 
0.03297685228 
0.0318962939 
0.03487814047 
0.0295107364 
0.02998192487 
0.0359953428 
0.03084520166 
0.03415704411 
0.02913853765 
0.03449232939 
0.0308332231 
0.0287757614 
0.0377651334 
0.03758821526 
0.03038075619 
0.0362343432 
0.03045717643 
0.03095274019 
0.04168693955 
0.02926194463 
0.03354999416 
0.03423449696 
0.03409123606 
0.03543508944 
0.03584160444 
0.03349466134 
0.03390335375 
0.04189152084 
0.03468285927 
0.02685024413 
0.03078526838 
0.06611315397 
0.08379060746 
0.07071268407 
0.06486592901 
0.06565556254 
0.06092759336 
0.09137147694 
0.02510623746 
0.03304776543 
0.06218750803 
0.04678151573 
0.04130517265 
0.03438327665 
0.02969453469 
0.03479169916 
0.06531771274 
0.03060017708 
0.03131725979 
0.03068562755 
0.04199243933 
0.03142220199 
0.03061595397 
0.03875638216 
0.05112373659 
0.0700641352 
0.0469730586 
0.02879813961 
0.09879717458 
0.07656535165 
0.07799405831 
0.1057752471 
0.08607616 
0.06294521024 
0.07412847878 
0.08041212769 
0.04356611228 
0.09630792685 
0.02948134154 
0.04502321098 
0.02841533244 
0.0290781078 
0.03149397054 
0.04780569085 
0.03909016035 
0.03413613664 
0.0771418064 
0.03787245251 
0.02445664441 
0.03270208243 
0.03586433176 
0.03704422727 
0.03076853912 
0.03848204224 
0.03483131073 
0.04233524253 
0.04525179953 
0.03621695242 
0.04105686082 
0.07202339209 
0.05217501598 
0.05157352002 
0.04628975197 
0.02451539937 
0.0434638048 
0.03975010733 
0.07828045888 
0.05989735603 
0.03418451692 
0.07735132495 
0.06745353715 
0.05691650294 
0.05522855485 
0.03344461336 
0.05729167065 
0.05311927642 
0.06220142012 
0.06411878403 
0.05768840391 
0.0509198183 
0.05752821272 
0.0495428318 
0.05713430348 
0.02865538409 
0.05217055899 
0.05296645567 
0.02710623317 
0.0452735499 
0.02956455258 
0.04720916258 
0.04470737066 
0.04251385163 
0.05058881335 
0.04459236448 
0.04531721958 
0.03154411133 
0.03277082588 
0.03549414342 
0.04008366781 
0.03727662492 
0.03465590709 
0.04183214741 
0.02908326138 
0.0355243186 
0.03152253365 
0.02863180834 
0.02666864697 
0.03466749182 
0.02829409637 
0.02959069289 
0.03034200286 
0.02817518275 
0.0345943998 
0.03730924594 