# vtk DataFile Version 3.0
MOAB 4.9.0
ASCII
DATASET UNSTRUCTURED_GRID
POINTS 1225 double
0 -0.5 0.5
0 0.5 0.5
0 -0.3333333333 0.5
0 -0.1666666667 0.5
0 0 0.5
0 0.1666666667 0.5
0 0.3333333333 0.5
0 0.5 -0.5
0 0.5 0.3333333333
0 0.5 0.1666666667
0 0.5 0
0 0.5 -0.1666666667
0 0.5 -0.3333333333
0 -0.5 -0.5
0 0.3333333333 -0.5
0 0.1666666667 -0.5
0 0 -0.5
0 -0.1666666667 -0.5
0 -0.3333333333 -0.5
0 -0.5 -0.3333333333
0 -0.5 -0.1666666667
0 -0.5 0
0 -0.5 0.1666666667
0 -0.5 0.3333333333
0 -0.3333333333 0.3333333333
0 -0.1666666667 0.3333333333
0 -6.938893904e-18 0.3333333333
0 0.1666666667 0.3333333333
0 0.3333333333 0.3333333333
0 -0.3333333333 0.1666666667
0 -0.1666666667 0.1666666667
0 -1.387778781e-17 0.1666666667
0 0.1666666667 0.1666666667
0 0.3333333333 0.1666666667
0 -0.3333333333 0
0 -0.1666666667 0
0 0 0
0 0.1666666667 0
0 0.3333333333 0
0 -0.3333333333 -0.1666666667
0 -0.1666666667 -0.1666666667
0 0 -0.1666666667
0 0.1666666667 -0.1666666667
0 0.3333333333 -0.1666666667
0 -0.3333333333 -0.3333333333
0 -0.1666666667 -0.3333333333
0 0 -0.3333333333
0 0.1666666667 -0.3333333333
0 0.3333333333 -0.3333333333
5 -0.5 -0.5
0.2083333333 -0.5 -0.5
0.4166666667 -0.5 -0.5
0.625 -0.5 -0.5
0.8333333333 -0.5 -0.5
1.041666667 -0.5 -0.5
1.25 -0.5 -0.5
1.458333333 -0.5 -0.5
1.666666667 -0.5 -0.5
1.875 -0.5 -0.5
2.083333333 -0.5 -0.5
2.291666667 -0.5 -0.5
2.5 -0.5 -0.5
2.708333333 -0.5 -0.5
2.916666667 -0.5 -0.5
3.125 -0.5 -0.5
3.333333333 -0.5 -0.5
3.541666667 -0.5 -0.5
3.75 -0.5 -0.5
3.958333333 -0.5 -0.5
4.166666667 -0.5 -0.5
4.375 -0.5 -0.5
4.583333333 -0.5 -0.5
4.791666667 -0.5 -0.5
5 -0.5 0.5
5 -0.5 0.3333333333
5 -0.5 0.1666666667
5 -0.5 0
5 -0.5 -0.1666666667
5 -0.5 -0.3333333333
4.791666667 -0.5 0.5
4.583333333 -0.5 0.5
4.375 -0.5 0.5
4.166666667 -0.5 0.5
3.958333333 -0.5 0.5
3.75 -0.5 0.5
3.541666667 -0.5 0.5
3.333333333 -0.5 0.5
3.125 -0.5 0.5
2.916666667 -0.5 0.5
2.708333333 -0.5 0.5
2.5 -0.5 0.5
2.291666667 -0.5 0.5
2.083333333 -0.5 0.5
1.875 -0.5 0.5
1.666666667 -0.5 0.5
1.458333333 -0.5 0.5
1.25 -0.5 0.5
1.041666667 -0.5 0.5
0.8333333333 -0.5 0.5
0.625 -0.5 0.5
0.4166666667 -0.5 0.5
0.2083333333 -0.5 0.5
0.2083333333 -0.5 -0.3333333333
0.4166666667 -0.5 -0.3333333333
0.625 -0.5 -0.3333333333
0.8333333333 -0.5 -0.3333333333
1.041666667 -0.5 -0.3333333333
1.25 -0.5 -0.3333333333
1.458333333 -0.5 -0.3333333333
1.666666667 -0.5 -0.3333333333
1.875 -0.5 -0.3333333333
2.083333333 -0.5 -0.3333333333
2.291666667 -0.5 -0.3333333333
2.5 -0.5 -0.3333333333
2.708333333 -0.5 -0.3333333333
2.916666667 -0.5 -0.3333333333
3.125 -0.5 -0.3333333333
3.333333333 -0.5 -0.3333333333
3.541666667 -0.5 -0.3333333333
3.75 -0.5 -0.3333333333
3.958333333 -0.5 -0.3333333333
4.166666667 -0.5 -0.3333333333
4.375 -0.5 -0.3333333333
4.583333333 -0.5 -0.3333333333
4.791666667 -0.5 -0.3333333333
0.2083333333 -0.5 -0.1666666667
0.4166666667 -0.5 -0.1666666667
0.625 -0.5 -0.1666666667
0.8333333333 -0.5 -0.1666666667
1.041666667 -0.5 -0.1666666667
1.25 -0.5 -0.1666666667
1.458333333 -0.5 -0.1666666667
1.666666667 -0.5 -0.1666666667
1.875 -0.5 -0.1666666667
2.083333333 -0.5 -0.1666666667
2.291666667 -0.5 -0.1666666667
2.5 -0.5 -0.1666666667
2.708333333 -0.5 -0.1666666667
2.916666667 -0.5 -0.1666666667
3.125 -0.5 -0.1666666667
3.333333333 -0.5 -0.1666666667
3.541666667 -0.5 -0.1666666667
3.75 -0.5 -0.1666666667
3.958333333 -0.5 -0.1666666667
4.166666667 -0.5 -0.1666666667
4.375 -0.5 -0.1666666667
4.583333333 -0.5 -0.1666666667
4.791666667 -0.5 -0.1666666667
0.2083333333 -0.5 0
0.4166666667 -0.5 0
0.625 -0.5 0
0.8333333333 -0.5 0
1.041666667 -0.5 0
1.25 -0.5 0
1.458333333 -0.5 0
1.666666667 -0.5 0
1.875 -0.5 0
2.083333333 -0.5 0
2.291666667 -0.5 0
2.5 -0.5 0
2.708333333 -0.5 0
2.916666667 -0.5 0
3.125 -0.5 0
3.333333333 -0.5 0
3.541666667 -0.5 0
3.75 -0.5 0
3.958333333 -0.5 0
4.166666667 -0.5 0
4.375 -0.5 0
4.583333333 -0.5 0
4.791666667 -0.5 0
0.2083333333 -0.5 0.1666666667
0.4166666667 -0.5 0.1666666667
0.625 -0.5 0.1666666667
0.8333333333 -0.5 0.1666666667
1.041666667 -0.5 0.1666666667
1.25 -0.5 0.1666666667
1.458333333 -0.5 0.1666666667
1.666666667 -0.5 0.1666666667
1.875 -0.5 0.1666666667
2.083333333 -0.5 0.1666666667
2.291666667 -0.5 0.1666666667
2.5 -0.5 0.1666666667
2.708333333 -0.5 0.1666666667
2.916666667 -0.5 0.1666666667
3.125 -0.5 0.1666666667
3.333333333 -0.5 0.1666666667
3.541666667 -0.5 0.1666666667
3.75 -0.5 0.1666666667
3.958333333 -0.5 0.1666666667
4.166666667 -0.5 0.1666666667
4.375 -0.5 0.1666666667
4.583333333 -0.5 0.1666666667
4.791666667 -0.5 0.1666666667
0.2083333333 -0.5 0.3333333333
0.4166666667 -0.5 0.3333333333
0.625 -0.5 0.3333333333
0.8333333333 -0.5 0.3333333333
1.041666667 -0.5 0.3333333333
1.25 -0.5 0.3333333333
1.458333333 -0.5 0.3333333333
1.666666667 -0.5 0.3333333333
1.875 -0.5 0.3333333333
2.083333333 -0.5 0.3333333333
2.291666667 -0.5 0.3333333333
2.5 -0.5 0.3333333333
2.708333333 -0.5 0.3333333333
2.916666667 -0.5 0.3333333333
3.125 -0.5 0.3333333333
3.333333333 -0.5 0.3333333333
3.541666667 -0.5 0.3333333333
3.75 -0.5 0.3333333333
3.958333333 -0.5 0.3333333333
4.166666667 -0.5 0.3333333333
4.375 -0.5 0.3333333333
4.583333333 -0.5 0.3333333333
4.791666667 -0.5 0.3333333333
5 0.5 -0.5
4.791666667 0.5 -0.5
4.583333333 0.5 -0.5
4.375 0.5 -0.5
4.166666667 0.5 -0.5
3.958333333 0.5 -0.5
3.75 0.5 -0.5
3.541666667 0.5 -0.5
3.333333333 0.5 -0.5
3.125 0.5 -0.5
2.916666667 0.5 -0.5
2.708333333 0.5 -0.5
2.5 0.5 -0.5
2.291666667 0.5 -0.5
2.083333333 0.5 -0.5
1.875 0.5 -0.5
1.666666667 0.5 -0.5
1.458333333 0.5 -0.5
1.25 0.5 -0.5
1.041666667 0.5 -0.5
0.8333333333 0.5 -0.5
0.625 0.5 -0.5
0.4166666667 0.5 -0.5
0.2083333333 0.5 -0.5
5 -0.3333333333 -0.5
5 -0.1666666667 -0.5
5 0 -0.5
5 0.1666666667 -0.5
5 0.3333333333 -0.5
0.2083333333 0.3333333333 -0.5
0.4166666667 0.3333333333 -0.5
0.625 0.3333333333 -0.5
0.8333333333 0.3333333333 -0.5
1.041666667 0.3333333333 -0.5
1.25 0.3333333333 -0.5
1.458333333 0.3333333333 -0.5
1.666666667 0.3333333333 -0.5
1.875 0.3333333333 -0.5
2.083333333 0.3333333333 -0.5
2.291666667 0.3333333333 -0.5
2.5 0.3333333333 -0.5
2.708333333 0.3333333333 -0.5
2.916666667 0.3333333333 -0.5
3.125 0.3333333333 -0.5
3.333333333 0.3333333333 -0.5
3.541666667 0.3333333333 -0.5
3.75 0.3333333333 -0.5
3.958333333 0.3333333333 -0.5
4.166666667 0.3333333333 -0.5
4.375 0.3333333333 -0.5
4.583333333 0.3333333333 -0.5
4.791666667 0.3333333333 -0.5
0.2083333333 0.1666666667 -0.5
0.4166666667 0.1666666667 -0.5
0.625 0.1666666667 -0.5
0.8333333333 0.1666666667 -0.5
1.041666667 0.1666666667 -0.5
1.25 0.1666666667 -0.5
1.458333333 0.1666666667 -0.5
1.666666667 0.1666666667 -0.5
1.875 0.1666666667 -0.5
2.083333333 0.1666666667 -0.5
2.291666667 0.1666666667 -0.5
2.5 0.1666666667 -0.5
2.708333333 0.1666666667 -0.5
2.916666667 0.1666666667 -0.5
3.125 0.1666666667 -0.5
3.333333333 0.1666666667 -0.5
3.541666667 0.1666666667 -0.5
3.75 0.1666666667 -0.5
3.958333333 0.1666666667 -0.5
4.166666667 0.1666666667 -0.5
4.375 0.1666666667 -0.5
4.583333333 0.1666666667 -0.5
4.791666667 0.1666666667 -0.5
0.2083333333 0 -0.5
0.4166666667 0 -0.5
0.625 0 -0.5
0.8333333333 0 -0.5
1.041666667 0 -0.5
1.25 0 -0.5
1.458333333 0 -0.5
1.666666667 0 -0.5
1.875 0 -0.5
2.083333333 0 -0.5
2.291666667 0 -0.5
2.5 0 -0.5
2.708333333 0 -0.5
2.916666667 0 -0.5
3.125 0 -0.5
3.333333333 0 -0.5
3.541666667 0 -0.5
3.75 0 -0.5
3.958333333 0 -0.5
4.166666667 0 -0.5
4.375 0 -0.5
4.583333333 0 -0.5
4.791666667 0 -0.5
0.2083333333 -0.1666666667 -0.5
0.4166666667 -0.1666666667 -0.5
0.625 -0.1666666667 -0.5
0.8333333333 -0.1666666667 -0.5
1.041666667 -0.1666666667 -0.5
1.25 -0.1666666667 -0.5
1.458333333 -0.1666666667 -0.5
1.666666667 -0.1666666667 -0.5
1.875 -0.1666666667 -0.5
2.083333333 -0.1666666667 -0.5
2.291666667 -0.1666666667 -0.5
2.5 -0.1666666667 -0.5
2.708333333 -0.1666666667 -0.5
2.916666667 -0.1666666667 -0.5
3.125 -0.1666666667 -0.5
3.333333333 -0.1666666667 -0.5
3.541666667 -0.1666666667 -0.5
3.75 -0.1666666667 -0.5
3.958333333 -0.1666666667 -0.5
4.166666667 -0.1666666667 -0.5
4.375 -0.1666666667 -0.5
4.583333333 -0.1666666667 -0.5
4.791666667 -0.1666666667 -0.5
0.2083333333 -0.3333333333 -0.5
0.4166666667 -0.3333333333 -0.5
0.625 -0.3333333333 -0.5
0.8333333333 -0.3333333333 -0.5
1.041666667 -0.3333333333 -0.5
1.25 -0.3333333333 -0.5
1.458333333 -0.3333333333 -0.5
1.666666667 -0.3333333333 -0.5
1.875 -0.3333333333 -0.5
2.083333333 -0.3333333333 -0.5
2.291666667 -0.3333333333 -0.5
2.5 -0.3333333333 -0.5
2.708333333 -0.3333333333 -0.5
2.916666667 -0.3333333333 -0.5
3.125 -0.3333333333 -0.5
3.333333333 -0.3333333333 -0.5
3.541666667 -0.3333333333 -0.5
3.75 -0.3333333333 -0.5
3.958333333 -0.3333333333 -0.5
4.166666667 -0.3333333333 -0.5
4.375 -0.3333333333 -0.5
4.583333333 -0.3333333333 -0.5
4.791666667 -0.3333333333 -0.5
5 0.5 0.5
5 0.3333333333 0.5
5 0.1666666667 0.5
5 0 0.5
5 -0.1666666667 0.5
5 -0.3333333333 0.5
5 0.5 -0.3333333333
5 0.5 -0.1666666667
5 0.5 0
5 0.5 0.1666666667
5 0.5 0.3333333333
5 0.3333333333 0.3333333333
5 0.1666666667 0.3333333333
5 6.938893904e-18 0.3333333333
5 -0.1666666667 0.3333333333
5 -0.3333333333 0.3333333333
5 0.3333333333 0.1666666667
5 0.1666666667 0.1666666667
5 1.387778781e-17 0.1666666667
5 -0.1666666667 0.1666666667
5 -0.3333333333 0.1666666667
5 0.3333333333 0
5 0.1666666667 0
5 0 0
5 -0.1666666667 0
5 -0.3333333333 0
5 0.3333333333 -0.1666666667
5 0.1666666667 -0.1666666667
5 0 -0.1666666667
5 -0.1666666667 -0.1666666667
5 -0.3333333333 -0.1666666667
5 0.3333333333 -0.3333333333
5 0.1666666667 -0.3333333333
5 0 -0.3333333333
5 -0.1666666667 -0.3333333333
5 -0.3333333333 -0.3333333333
0.2083333333 0.5 0.5
0.4166666667 0.5 0.5
0.625 0.5 0.5
0.8333333333 0.5 0.5
1.041666667 0.5 0.5
1.25 0.5 0.5
1.458333333 0.5 0.5
1.666666667 0.5 0.5
1.875 0.5 0.5
2.083333333 0.5 0.5
2.291666667 0.5 0.5
2.5 0.5 0.5
2.708333333 0.5 0.5
2.916666667 0.5 0.5
3.125 0.5 0.5
3.333333333 0.5 0.5
3.541666667 0.5 0.5
3.75 0.5 0.5
3.958333333 0.5 0.5
4.166666667 0.5 0.5
4.375 0.5 0.5
4.583333333 0.5 0.5
4.791666667 0.5 0.5
[...]
POINT_DATA 1225
SCALARS KDE_TALLY_TAG double 1
LOOKUP_TABLE default
0.2826433847 
0.2875851847 
0.2979202083 
0.3033736756 
0.3027899649 
0.2950960005 
0.2859326329 
0.3002048244 
0.2991439211 
0.2806227651 
0.2970212739 
0.3128811053 
0.28396744 
0.3060984832 
0.2971039917 
0.2987806758 
0.2921672821 
0.3177708782 
0.2909268411 
0.279342205 
0.2919163228 
0.3053417575 
0.3041064331 
0.3138673344 
0.2988992229 
0.3207489418 
0.3017649445 
0.3093260716 
0.3094847027 
0.3097660544 
0.2782711734 
0.3052610499 
0.295169326 
0.2827470273 
0.2890568057 
0.2852856 
0.3044286167 
0.300478981 
0.2900764587 
0.336419296 
0.2895541922 
0.286910115 
0.305567717 
0.2978277946 
0.2901737722 
0.3047500689 
0.2991839398 
0.2887192046 
0.3154273662 
0.0318469568 
0.2955306482 
0.2719057984 
0.2611479897 
0.2338544848 
0.2344672892 
0.1977965877 
0.1849058169 
0.1717839902 
0.1546967775 
0.1412802485 
0.1333070705 
0.1215835101 
0.1111966919 
0.1005023449 
0.09144847265 
0.07458148386 
0.07185584987 
0.06396535443 
0.0592379505 
0.04766733026 
0.04710099526 
0.03634050857 
0.03111304847 
0.03539869626 
0.03324649184 
0.03205056552 
0.02833647857 
0.03047125835 
0.03806873086 
0.0381385686 
0.04031058711 
0.04650150722 
0.05198865163 
0.0524449265 
0.06765307979 
0.06914537835 
0.08134411301 
0.08235769036 
0.08885634555 
0.1091184628 
0.1139454763 
0.1285869746 
0.1473042672 
0.1532870563 
0.1698734663 
0.1758233485 
0.1910594326 
0.2248649291 
0.2387697139 
0.2394868446 
0.2628353469 
0.2769189962 
0.2776303839 
0.2726482172 
0.2555215615 
0.2285258568 
0.2115718698 
0.1969039451 
0.1874441402 
0.1605996925 
0.1352403798 
0.1318921969 
0.1293838108 
0.1184049047 
0.1040045983 
0.08351045848 
0.08237798951 
0.07723919659 
0.06882362346 
0.05731298255 
0.05621705575 
0.05551565114 
0.04730544577 
0.03411820286 
0.03699097621 
0.287077845 
0.2678604506 
0.257375108 
0.231148982 
0.2107766429 
0.1884673217 
0.1753787044 
0.1749544171 
0.1575262281 
0.1393847039 
0.1215332191 
0.1202786238 
0.1129838896 
0.09771261442 
0.0960940043 
0.08499947788 
0.07069245747 
0.07106916222 
0.06482826561 
0.04596622252 
0.04645921704 
0.04592816703 
0.03529693697 
0.2813615824 
0.2773243817 
0.2619904547 
0.241380831 
0.2182806271 
0.225925748 
0.1918698251 
0.1808562429 
0.1517530315 
0.1596900543 
0.1370367647 
0.1214695783 
0.1098937582 
0.09703806562 
0.09313990123 
0.08690944547 
0.07224534803 
0.06730736289 
0.05722269324 
0.04438141148 
0.04611266841 
0.03394809589 
0.03150095938 
0.2736932984 
0.2584682796 
0.262507648 
0.2435386671 
0.2149843399 
0.1866904852 
0.1835307498 
0.1759706732 
0.152667179 
0.1435121567 
0.1225027738 
0.1129741807 
0.1054445317 
0.09660357972 
0.08693551262 
0.08066828479 
0.07103794842 
0.06318158453 
0.05556867107 
0.04810658686 
0.03592674025 
0.03507681486 
0.03084796754 
0.2985187419 
0.2927855845 
0.2696333839 
0.2501852176 
0.2328315184 
0.2226916551 
0.1944797954 
0.1903761836 
0.1747179538 
0.158919448 
0.1404172452 
0.1202868101 
0.1026791223 
0.1040653432 
0.08934390713 
0.08708626985 
0.07612775764 
0.06582431608 
0.05911894427 
0.04978302348 
0.04408391615 
0.04295821435 
0.03913047755 
0.02919882187 
0.03252543485 
0.04538251338 
0.0399289595 
0.04655325102 
0.06113683722 
0.06372984306 
0.07554932001 
0.07427949732 
0.07266636626 
0.09729978018 
0.09958410674 
0.1126210548 
0.127755662 
0.1402226231 
0.1656681401 
0.1765252596 
0.1928403907 
0.1964651161 
0.213465183 
0.2352753702 
0.2474168589 
0.2706890622 
0.2767031234 
0.03497961742 
0.03746884265 
0.03487457954 
0.04175878218 
0.04293544541 
0.3038966946 
0.2765314556 
0.2740949928 
0.2453444117 
0.2361983175 
0.2108504007 
0.1983244745 
0.1845863963 
0.1722325128 
0.1376846641 
0.1339023106 
0.1173026485 
0.1183964324 
0.09923089591 
0.1003431445 
0.0857425672 
0.08429525978 
0.06320940544 
0.06933760111 
0.05444013047 
0.05380338631 
0.04669219772 
0.04498620191 
0.2945458214 
0.2969510894 
0.2715802354 
0.2471526494 
0.2279850081 
0.2089584285 
0.1985169318 
0.1789761676 
0.1605520852 
0.1493312416 
0.1345496607 
0.1248707047 
0.1157747892 
0.1014310755 
0.09205964902 
0.07924180121 
0.07852194357 
0.07127953222 
0.05956770476 
0.05365513753 
0.05718412638 
0.04885098319 
0.04259538756 
0.2962983127 
0.2863232667 
0.2605286761 
0.2431787028 
0.2209814342 
0.2055827993 
0.1809950739 
0.1857167216 
0.1647477521 
0.1605759693 
0.136422236 
0.118752751 
0.1045793924 
0.1036643728 
0.0968646058 
0.08167211289 
0.08182598671 
0.06873171356 
0.06493188845 
0.05513152004 
0.04078731182 
0.03794729405 
0.03562227295 
0.3254246645 
0.3020053883 
0.2940650587 
0.2655414244 
0.2310705878 
0.2088459498 
0.1980690601 
0.1723347037 
0.1491082773 
0.136128771 
0.1178002197 
0.1141199297 
0.101426069 
0.08491619106 
0.08971624988 
0.07851711227 
0.07288059496 
0.06255737285 
0.05841706815 
0.05175578565 
0.05169645753 
0.04789865384 
0.04413001663 
0.2912135741 
0.2632005898 
0.2566796626 
0.2463063501 
0.2141600641 
0.2093897317 
0.1888571733 
0.1590413987 
0.1482849719 
0.1452751213 
0.1374905032 
0.1125324112 
0.1058663278 
0.09765786205 
0.08993068879 
0.07649389519 
0.06410228446 
0.05942646715 
0.0537319948 
0.04567349655 
0.05079109498 
0.04039538127 
0.03695917193 
0.03562174342 
0.02788764799 
0.02962975707 
0.03079715107 
0.02958737858 
0.04091417192 
0.03538337338 
0.03880847856 
0.0302044815 
0.02964337668 
0.02619513429 
0.03600911097 
0.0464207453 
0.03347955129 
0.03388737694 
0.03778704565 
0.03005854606 
0.03768469076 
0.03790817492 
0.04645667365 
0.03658224434 
0.02949471086 
0.03199931605 
0.03359569584 
0.03480547319 
0.03852926791 
0.0409398296 
0.03612335106 
0.03554976713 
0.03819287303 
0.03682733723 
0.03702079707 
0.0298227066 
0.03028925665 
0.03491177522 
0.03002999155 
0.2809846407 
0.2579906446 
0.2469131221 
0.2269229148 
0.2282367131 
0.1982903477 
0.1794807317 
0.1587138832 
0.1419576608 
0.1398425455 
0.1269033286 
0.123113443 
0.1033111043 
0.09402896739 
0.08859194327 
0.07136773865 
0.07282795945 
0.063729473 
0.05728902486 
0.05340964158 
0.04781791979 
0.04935124881 
0.04116904504 
0.2727149395 
0.2763959659 
0.2665928928 
0.2517609958 
0.2453119594 
0.2220808636 
0.195796659 
0.1829107511 
0.1777831543 
0.1506860084 
0.1390103321 
0.1222638992 
0.1046256478 
0.1065749447 
0.08837446907 
0.08582722075 
0.07761781709 
0.06994161663 
0.05372876701 
0.05253576689 
0.05400376814 
0.04429369349 
0.04411863798 
0.2842550055 
0.2700560041 
0.2697988631 
0.263044784 
0.2279700746 
0.2072521852 
0.197129189 
0.1760270494 
0.1577626838 
0.1413706238 
0.126580566 
0.1147626745 
0.108808931 
0.106406641 
0.08688743905 
0.07665352079 
0.07414493231 
0.06853751296 
0.04878818326 
0.05050389594 
0.0443131597 
0.03624582343 
0.03621838528 
0.2890118343 
0.2700303095 
0.267362392 
0.249967234 
0.2334162288 
0.2086860496 
0.1948488318 
0.1748200055 
0.1601447218 
0.1458869415 
0.1440656308 
0.1297916318 
0.1017445395 
0.09836264079 
0.102528728 
0.08781624676 
0.07446437459 
0.06271331444 
0.0603647548 
0.05301980944 
0.04594571257 
0.04130351313 
0.04231984376 
0.2933998396 
0.2858954362 
0.2716840718 
0.250213992 
0.2252666321 
0.1987745243 
0.1860525718 
0.1880997712 
0.1507051003 
0.1483537486 
0.1505883714 
0.1364689181 
0.1111021148 
0.1029046338 
0.09035720862 
0.09089141698 
0.07462765997 
0.06907870755 
0.06370596557 
0.05172942598 
0.04530429207 
0.04031291748 
0.0400589042 
0.280611351 
0.2598817075 
0.2353586699 
0.223095927 
0.2175984731 
0.1905077992 
0.1744218921 
0.1679924047 
0.1584853397 
0.1465138442 
0.1317729183 
0.1207500683 
0.1022541312 
0.09376926339 
0.08307692636 
0.07865049736 
0.07462741311 
0.0563198965 
0.05063098986 
0.05534240657 
0.04313481266 
0.04123882041 
0.03752733564 
0.2845019658 
0.2704566582 
0.2410049604 
0.2352296352 
0.2169558595 
0.2036736837 
0.1858481441 
0.1697059251 
0.137294751 
0.1388573866 
0.1250903891 
0.1182255755 
0.09860686144 
0.08920750814 
0.08662572955 
0.08063013533 
0.07010195571 
0.06254442044 
0.05134405551 
0.0478509193 
0.0510968646 
0.04420335332 
0.03490578665 
0.2750932085 
0.2625899129 
0.2440448738 
0.2455193844 
0.2154206083 
0.2101489715 
0.1888881846 
0.1748805659 
0.1538142588 
0.1475766313 
0.1378862137 
0.1100156375 
0.1053142343 
0.09125526328 
0.08764064031 
0.07661290444 
0.07620800389 
0.06584697239 
0.05105077683 
0.05091493507 
0.04184491485 
0.03683792063 
0.02996947304 
0.2911543365 
0.2788370592 
0.2639712043 
0.2456472135 
0.2404282646 
0.2312415675 
0.2022574016 
0.1749130906 
0.1549462068 
0.145330075 
0.1317091116 
0.1220663975 
0.1100456551 
0.1009808105 
0.08769202508 
0.07518726714 
0.06906406141 
0.06481173765 
0.05534541018 
0.05446560236 
0.04636350849 
0.04210192453 
0.03517435024 
0.303236534 
0.2961631246 
0.276813494 
0.2760482028 
0.2417564766 
0.2361232249 
0.2060020364 
0.1901168797 
0.1648461445 
0.1395529215 
0.1421338141 
0.1332575155 
0.1165396151 
0.100952706 
0.09459488217 
0.0838762489 
0.08384575663 
0.07743115424 
0.06210689582 
0.05532005459 
0.05522483892 
0.04572956839 
0.0428683387 
0.2857337632 
0.2680601161 
0.2644016396 
0.2398763194 
0.2226410886 
0.2046432454 
0.1916625488 
0.1844079874 
0.1644798115 
0.1502767242 
0.1428791044 
0.129641473 
0.1043173918 
0.1066531028 
0.09681473798 
0.08335985477 
0.07295968751 
0.06632772447 
0.06045129389 
0.04892864802 
0.0488948251 
0.04208794733 
0.04098281634 
0.286093636 
0.2723936047 
0.2486350093 
0.2416473652 
0.2230262359 
0.2024316955 
0.1916146123 
0.1662490904 
0.1470087296 
0.1473455184 
0.1205173327 
0.1126132765 
0.1016122447 
0.09868482529 
0.08496558242 
0.08062662759 
0.06370994583 
0.05936346458 
0.05503829061 
0.04866567496 
0.046066398 
0.0423649909 
0.04446257683 
0.3123242274 
0.2907771986 
0.2663013915 
0.2533175873 
0.2445981474 
0.2159359667 
0.1972612924 
0.1893691726 
0.1655561884 
0.1591482329 
0.1411689555 
0.1259440238 
0.1085197586 
0.1047033003 
0.09272688335 
0.08802075531 
0.08121181819 
0.06156298833 
0.05162728189 
0.05747131936 
0.04550342815 
0.04445766165 
0.03734610855 
0.2979156563 
0.2760958336 
0.2635584059 
0.2328119284 
0.2236623771 
0.2012311911 
0.1962319601 
0.1714271091 
0.163644469 
0.1488030215 
0.130293777 
0.1175248003 
0.1038641321 
0.09511479687 
0.09747828795 
0.08316721601 
0.07384682058 
0.05804818214 
0.06316126222 
0.05414653115 
0.04597244462 
0.04325627102 
0.04050675846 
0.2966906252 
0.2730073021 
0.2736672934 
0.2435099698 
0.2248297706 
0.1962747964 
0.1923391833 
0.1753273926 
0.159796894 
0.1355092674 
0.1254999564 
0.1212084384 
0.1065210475 
0.09512059816 
0.09318911622 
0.08292534912 
0.0774374935 
0.06374441176 
0.0548509404 
0.0456255028 
0.04755363288 
0.04650201329 
0.03734834895 
0.2921627861 
0.2972840506 
0.2643822294 
0.2586411802 
0.2193816762 
0.1990176152 
0.1897725039 
0.183163262 
0.1631162708 
0.1544862328 
0.1367312896 
0.1249450513 
0.1150941157 
0.1031647068 
0.09380511362 
0.08277722006 
0.07296526494 
0.07130042766 
0.05677386547 
0.05426010993 
0.05706940886 
0.04192773009 
0.04454211486 
0.3201170486 
0.3143235762 
0.3090418593 
0.2714700422 
0.2479687277 
0.2416373882 
0.2282724579 
0.2047965085 
0.188440593 
0.1791014192 
0.1634424059 
0.1364010577 
0.1361936466 
0.1111733722 
0.09010107176 
0.09075143949 
0.08417124943 
0.0789905604 
0.06554752175 
0.05195374332 
0.05075213065 
0.05095617467 
0.0458909927 
0.2990329502 
0.2756428084 
0.2727625144 
0.2607300044 
0.2164151452 
0.2077070558 
0.1918752329 
0.1796478314 
0.1637023133 
0.146353777 
0.1466007051 
0.1132600031 
0.1070092798 
0.09797274868 
0.08818277715 
0.07361455814 
0.07327416563 
0.06406851635 
0.05663493087 
0.0491932809 
0.04984542621 
0.0355856294 
0.03803972658 
0.2893093692 
0.2688663149 
0.2520807295 
0.243973523 
0.2339089579 
0.2163811487 
0.2122706148 
0.1797829939 
0.1694408855 
0.1481351773 
0.1453406257 
0.1208901938 
0.1092029955 
0.1004577778 
0.08588284 
0.07843189369 
0.07158470392 
0.05585980719 
0.05272388745 
0.05469645529 
0.04872338195 
0.04412511732 
0.03725051256 
0.2966433713 
0.2808392401 
0.2668717831 
0.2558243881 
0.2488434161 
0.2203077965 
0.2105229327 
0.193214505 
0.1754387399 
0.1532060504 
0.1413825092 
0.1295563341 
0.1147695406 
0.1118973199 
0.09070525697 
0.07809464436 
0.08228516733 
0.07730159086 
0.0690745182 
0.05106520886 
0.04822209836 
0.04371991083 
0.03780177948 
0.2963113594 
0.2748769538 
0.267026933 
0.2622086864 
0.2510596875 
0.2341887972 
0.2047743444 
0.1929947059 
0.1719276562 
0.1602426732 
0.1362106994 
0.1166102687 
0.1088880317 
0.1014971874 
0.09105202192 
0.08492089382 
0.07934000474 
0.07143040902 
0.06002371546 
0.05559719007 
0.04706887376 
0.03840456711 
0.04049894072 
0.3020093068 
0.277551666 
0.2664390518 
0.2483650145 
0.2454518483 
0.2210939107 
0.2060589268 
0.1916616012 
0.1749469417 
0.1599747998 
0.143513374 
0.1291496018 
0.1173880394 
0.107813929 
0.09515787104 
0.08819992414 
0.06558972682 
0.07014998529 
0.06214853316 
0.05392717389 
0.05141430944 
0.03656199191 
0.0418997083 
0.283575839 
0.2709509928 
0.2469249575 
0.2341043007 
0.2231411013 
0.2083279761 
0.1852253729 
0.1744238296 
0.1608200829 
0.1445262699 
0.1370802081 
0.1311430046 
0.1021180719 
0.09701009794 
0.09020631977 
0.08075955042 
0.07223820505 
0.06893669687 
0.05498196469 
0.05215887574 
0.04722153941 
0.03767690781 
0.03765407573 
0.2858835628 
0.2829117482 
0.2847500549 
0.254788505 
0.2395981505 
0.2156811103 
0.2086859142 
0.1882458555 
0.1671421027 
0.164774506 
0.145631053 
0.1279530996 
0.1113717497 
0.1042716644 
0.09120619999 
0.0929125161 
0.08796807978 
0.07472825504 
0.06330076254 
0.05341816235 
0.05512518396 
0.04718260129 
0.03980003831 
0.30477798 
0.2882826718 
0.2748655234 
0.2707464905 
0.2442679488 
0.2261193991 
0.2018779704 
0.1893022362 
0.1846937234 
0.1703848625 
0.1426327397 
0.1301472089 
0.1184353361 
0.1085675088 
0.09345159586 
0.0835406963 
0.07153989784 
0.07097834353 
0.05539120726 
0.05118721153 
0.04841205741 
0.05118282719 
0.0360061147 
0.299777438 
0.2774881293 
0.2587465716 
0.2550087441 
0.2271923388 
0.2132227737 
0.1978337472 
0.1798833925 
0.1581678129 
0.1550169832 
0.1416632024 
0.1150644378 
0.1165332967 
0.1055983788 
0.09924733214 
0.08543606512 
0.0647123665 
0.06280584572 
0.05964444695 
0.05422919089 
0.05325389478 
0.04333684898 
0.04177978184 
0.3100405276 
0.2992086075 
0.267037214 
0.2510662349 
0.2384379842 
0.2166384433 
0.199037238 
0.1823410691 
0.1701208571 
0.1528056054 
0.1358473716 
0.1209738152 
0.1192815548 
0.1144064701 
0.08948135966 
0.08357053568 
0.07807333957 
0.06414374934 
0.05697149227 
0.05541414578 
0.04988061635 
0.0466457774 
0.03798934411 
0.2833882156 
0.271918979 
0.2592486037 
0.2421762567 
0.22780253 
0.2199914132 
0.1998147988 
0.1845452704 
0.1589562523 
0.1452197374 
0.1395801434 
0.1213910237 
0.1076983808 
0.1093354293 
0.09921195125 
0.09078343719 
0.08174071266 
0.06841869059 
0.0628036459 
0.06459388975 
0.05145064224 
0.05314880128 
0.05010734568 
0.3089332519 
0.3044399482 
0.2691034961 
0.2582029582 
0.2470468831 
0.2419063833 
0.2133585648 
0.2022373542 
0.1668360045 
0.1709151292 
0.1458573155 
0.1382788683 
0.1273801557 
0.1150140528 
0.09648603878 
0.09006160477 
0.08784769084 
0.07393537173 
0.05989097471 
0.04678035369 
0.04906592295 
0.04391249095 
0.03939552941 
0.3022621595 
0.2955679589 
0.2765619305 
0.2528644866 
0.2366129877 
0.217429273 
0.2030668897 
0.1889442654 
0.1689256437 
0.1499731738 
0.1280039101 
0.1294188049 
0.1280563333 
0.1137339616 
0.09845905883 
0.08431027586 
0.08182049627 
0.06861111199 
0.0633398677 
0.06119356172 
0.04969387095 
0.04846953151 
0.03938829174 
0.2864631736 
0.2634543284 
0.2522451218 
0.2394605695 
0.2278631402 
0.2033352395 
0.1987974693 
0.1849516464 
0.1533849333 
0.1470307762 
0.1337157586 
0.1213542247 
0.1083698548 
0.1059094817 
0.09748726272 
0.07754410304 
0.06890572377 
0.05408248676 
0.05591008233 
0.04682990512 
0.04267335014 
0.04632477736 
0.03348523128 
0.2870230423 
0.2574221507 
0.2453159982 
0.2372817369 
0.2163687289 
0.2098783028 
0.1792346004 
0.1740516443 
0.1437805877 
0.1417963002 
0.1245927364 
0.1084626747 
0.1014439058 
0.0957739599 
0.08898149232 
0.08263814554 
0.07309742305 
0.07120798747 
0.06663213488 
0.05709030845 
0.04605780139 
0.03980278761 
0.04052212266 
0.3158562749 
0.2808621937 
0.2755718343 
0.2497680557 
0.2348514434 
0.2180177447 
0.2037897568 
0.2007103247 
0.1777907555 
0.1541949198 
0.1411631412 
0.1269511856 
0.1211616085 
0.1178206378 
0.09547152601 
0.08633193558 
0.08112543414 
0.07831988903 
0.06712128195 
0.05878551167 
0.05646987166 
0.04643193626 
0.04128440432 
0.2958903523 
0.285411719 
0.2584402234 
0.2432954991 
0.2290852985 
0.2254548968 
0.2129522747 
0.2009216408 
0.1610512105 
0.1600571072 
0.1338664982 
0.1312522734 
0.1100099994 
0.1071692829 
0.08725399172 
0.07755652983 
0.07614452989 
0.06580508304 
0.0595518116 
0.04795080797 
0.05645336487 
0.03864226453 
0.04493062323 
0.3215569057 
0.2972356675 
0.2786042846 
0.2664713606 
0.2442299705 
0.2257816398 
0.2167091611 
0.1864370118 
0.1649261881 
0.1610639164 
0.1487168791 
0.1307848916 
0.1217235646 
0.101153403 
0.09889967357 
0.09178970972 
0.07630118793 
0.07443266134 
0.06945555307 
0.07075341543 
0.06471488216 
0.05562153592 
0.04508228556 
0.2929676723 
0.2868411076 
0.2696893539 
0.2557968382 
0.214147295 
0.2212507397 
0.2080896739 
0.178487059 
0.1557787637 
0.1467677691 
0.1269874825 
0.1428639428 
0.1184767991 
0.1035904421 
0.09479405463 
0.08550565754 
0.07618971057 
0.07371160167 
0.05884647456 
0.04518139022 
0.04691247057 
0.0448676838 
0.03848352103 
SCALARS KDE_ERROR_TAG double 1
LOOKUP_TABLE default
0.04139384441 
0.04170933715 
0.0411775208 
0.04050419168 
0.04078808997 
0.04051380147 
0.04131813538 
0.0403601701 
0.04084269211 
0.04146037508 
0.04062351542 
0.03973950698 
0.04161951144 
0.04066531022 
0.04096030401 
0.04093568356 
0.0414402002 
0.04071272908 
0.04130033034 
0.04157685941 
0.0414015328 
0.04048520207 
0.04064951614 
0.04013873315 
0.04063316401 
0.0401884702 
0.04106806694 
0.04021772756 
0.04011101184 
0.04032484849 
0.04263630878 
0.04094032789 
0.0413642112 
0.04151253322 
0.04140597811 
0.04112348376 
0.0400718358 
0.04069346606 
0.04128191538 
0.03885092562 
0.04101014289 
0.04175750375 
0.04011275695 
0.04095819838 
0.0410925025 
0.04053615828 
0.04104676102 
0.04110203542 
0.03980293361 
0.1222274813 
0.04101589976 
0.04265009455 
0.04405465219 
0.04601944515 
0.04551219249 
0.04969740759 
0.05199209775 
0.05297277094 
0.05623798013 
0.0584266554 
0.06009704596 
0.06371912117 
0.065263283 
0.07082037175 
0.07411152173 
0.08173135295 
0.08193604735 
0.08730911865 
0.09208471933 
0.09749792422 
0.09878205827 
0.1114135958 
0.1230599716 
0.1207810141 
0.1213124724 
0.1205893699 
0.1351104171 
0.1297432575 
0.1114912233 
0.1157905515 
0.1115698962 
0.1029671956 
0.09517960864 
0.09427951332 
0.08496053892 
0.08694713581 
0.07786226528 
0.07474452677 
0.07154619383 
0.06653456881 
0.06436085985 
0.06115922647 
0.05778893589 
0.05620907058 
0.05411195765 
0.05219135147 
0.05034238727 
0.04644149626 
0.04532750093 
0.04490383493 
0.04283246723 
0.04243449108 
0.04143892321 
0.04280688643 
0.04373015 
0.04606129328 
0.04776436757 
0.04965820681 
0.05061976417 
0.05452625752 
0.05920371584 
0.060590933 
0.06127621122 
0.06476885619 
0.06716307391 
0.07377417724 
0.07446995718 
0.08022734606 
0.0827787202 
0.09026457868 
0.09218818792 
0.09507094252 
0.1029582527 
0.1156180744 
0.1144789218 
0.0422066641 
0.04304716993 
0.0437470649 
0.04603940501 
0.04799350219 
0.0513753565 
0.0531315401 
0.05337742092 
0.05538665546 
0.05972434077 
0.0628508475 
0.06514809878 
0.06714389664 
0.07255979561 
0.07181665694 
0.07689163032 
0.08341263936 
0.08396970555 
0.08642085697 
0.1007607087 
0.1028272881 
0.1060952085 
0.1215978203 
0.04223609742 
0.0426519036 
0.0436010869 
0.04518886076 
0.04755770928 
0.04715286894 
0.05095011702 
0.05224704114 
0.05617958095 
0.05643759251 
0.06016788297 