# vtk DataFile Version 3.0
MOAB 4.9.0
ASCII
DATASET UNSTRUCTURED_GRID
POINTS 1225 double
0 -0.5 0.5
0 0.5 0.5
0 -0.3333333333 0.5
0 -0.1666666667 0.5
0 0 0.5
0 0.1666666667 0.5
0 0.3333333333 0.5
0 0.5 -0.5
0 0.5 0.3333333333
0 0.5 0.1666666667
0 0.5 0
0 0.5 -0.1666666667
0 0.5 -0.3333333333
0 -0.5 -0.5
0 0.3333333333 -0.5
0 0.1666666667 -0.5
0 0 -0.5
0 -0.1666666667 -0.5
0 -0.3333333333 -0.5
0 -0.5 -0.3333333333
0 -0.5 -0.1666666667
0 -0.5 0
0 -0.5 0.1666666667
0 -0.5 0.3333333333
0 -0.3333333333 0.3333333333
0 -0.1666666667 0.3333333333
0 -6.938893904e-18 0.3333333333
0 0.1666666667 0.3333333333
0 0.3333333333 0.3333333333
0 -0.3333333333 0.1666666667
0 -0.1666666667 0.1666666667
0 -1.387778781e-17 0.1666666667
0 0.1666666667 0.1666666667
0 0.3333333333 0.1666666667
0 -0.3333333333 0
0 -0.1666666667 0
0 0 0
0 0.1666666667 0
0 0.3333333333 0
0 -0.3333333333 -0.1666666667
0 -0.1666666667 -0.1666666667
0 0 -0.1666666667
0 0.1666666667 -0.1666666667
0 0.3333333333 -0.1666666667
0 -0.3333333333 -0.3333333333
0 -0.1666666667 -0.3333333333
0 0 -0.3333333333
0 0.1666666667 -0.3333333333
0 0.3333333333 -0.3333333333
2.5 -0.5 -0.5
0.2083333333 -0.5 -0.5
0.4166666667 -0.5 -0.5
0.625 -0.5 -0.5
0.8333333333 -0.5 -0.5
1.041666667 -0.5 -0.5
1.25 -0.5 -0.5
1.458333333 -0.5 -0.5
1.666666667 -0.5 -0.5
1.875 -0.5 -0.5
2.083333333 -0.5 -0.5
2.291666667 -0.5 -0.5
2.5 -0.5 0.5
2.5 -0.5 0.3333333333
2.5 -0.5 0.1666666667
2.5 -0.5 0
2.5 -0.5 -0.1666666667
2.5 -0.5 -0.3333333333
2.291666667 -0.5 0.5
2.083333333 -0.5 0.5
1.875 -0.5 0.5
1.666666667 -0.5 0.5
1.458333333 -0.5 0.5
1.25 -0.5 0.5
1.041666667 -0.5 0.5
0.8333333333 -0.5 0.5
0.625 -0.5 0.5
0.4166666667 -0.5 0.5
0.2083333333 -0.5 0.5
0.2083333333 -0.5 -0.3333333333
0.4166666667 -0.5 -0.3333333333
0.625 -0.5 -0.3333333333
0.8333333333 -0.5 -0.3333333333
1.041666667 -0.5 -0.3333333333
1.25 -0.5 -0.3333333333
1.458333333 -0.5 -0.3333333333
1.666666667 -0.5 -0.3333333333
1.875 -0.5 -0.3333333333
2.083333333 -0.5 -0.3333333333
2.291666667 -0.5 -0.3333333333
0.2083333333 -0.5 -0.1666666667
0.4166666667 -0.5 -0.1666666667
0.625 -0.5 -0.1666666667
0.8333333333 -0.5 -0.1666666667
1.041666667 -0.5 -0.1666666667
1.25 -0.5 -0.1666666667
1.458333333 -0.5 -0.1666666667
1.666666667 -0.5 -0.1666666667
1.875 -0.5 -0.1666666667
2.083333333 -0.5 -0.1666666667
2.291666667 -0.5 -0.1666666667
0.2083333333 -0.5 0
0.4166666667 -0.5 0
0.625 -0.5 0
0.8333333333 -0.5 0
1.041666667 -0.5 0
1.25 -0.5 0
1.458333333 -0.5 0
1.666666667 -0.5 0
1.875 -0.5 0
2.083333333 -0.5 0
2.291666667 -0.5 0
0.2083333333 -0.5 0.1666666667
0.4166666667 -0.5 0.1666666667
0.625 -0.5 0.1666666667
0.8333333333 -0.5 0.1666666667
1.041666667 -0.5 0.1666666667
1.25 -0.5 0.1666666667
1.458333333 -0.5 0.1666666667
1.666666667 -0.5 0.1666666667
1.875 -0.5 0.1666666667
2.083333333 -0.5 0.1666666667
2.291666667 -0.5 0.1666666667
0.2083333333 -0.5 0.3333333333
0.4166666667 -0.5 0.3333333333
0.625 -0.5 0.3333333333
0.8333333333 -0.5 0.3333333333
1.041666667 -0.5 0.3333333333
1.25 -0.5 0.3333333333
1.458333333 -0.5 0.3333333333
1.666666667 -0.5 0.3333333333
1.875 -0.5 0.3333333333
2.083333333 -0.5 0.3333333333
2.291666667 -0.5 0.3333333333
2.5 0.5 -0.5
2.291666667 0.5 -0.5
2.083333333 0.5 -0.5
1.875 0.5 -0.5
1.666666667 0.5 -0.5
1.458333333 0.5 -0.5
1.25 0.5 -0.5
1.041666667 0.5 -0.5
0.8333333333 0.5 -0.5
0.625 0.5 -0.5
0.4166666667 0.5 -0.5
0.2083333333 0.5 -0.5
2.5 -0.3333333333 -0.5
2.5 -0.1666666667 -0.5
2.5 0 -0.5
2.5 0.1666666667 -0.5
2.5 0.3333333333 -0.5
0.2083333333 0.3333333333 -0.5
0.4166666667 0.3333333333 -0.5
0.625 0.3333333333 -0.5
0.8333333333 0.3333333333 -0.5
1.041666667 0.3333333333 -0.5
1.25 0.3333333333 -0.5
1.458333333 0.3333333333 -0.5
1.666666667 0.3333333333 -0.5
1.875 0.3333333333 -0.5
2.083333333 0.3333333333 -0.5
2.291666667 0.3333333333 -0.5
0.2083333333 0.1666666667 -0.5
0.4166666667 0.1666666667 -0.5
0.625 0.1666666667 -0.5
0.8333333333 0.1666666667 -0.5
1.041666667 0.1666666667 -0.5
1.25 0.1666666667 -0.5
1.458333333 0.1666666667 -0.5
1.666666667 0.1666666667 -0.5
1.875 0.1666666667 -0.5
2.083333333 0.1666666667 -0.5
2.291666667 0.1666666667 -0.5
0.2083333333 0 -0.5
0.4166666667 0 -0.5
0.625 0 -0.5
0.8333333333 0 -0.5
1.041666667 0 -0.5
1.25 0 -0.5
1.458333333 0 -0.5
1.666666667 0 -0.5
1.875 0 -0.5
2.083333333 0 -0.5
2.291666667 0 -0.5
0.2083333333 -0.1666666667 -0.5
0.4166666667 -0.1666666667 -0.5
0.625 -0.1666666667 -0.5
0.8333333333 -0.1666666667 -0.5
1.041666667 -0.1666666667 -0.5
1.25 -0.1666666667 -0.5
1.458333333 -0.1666666667 -0.5
1.666666667 -0.1666666667 -0.5
1.875 -0.1666666667 -0.5
2.083333333 -0.1666666667 -0.5
2.291666667 -0.1666666667 -0.5
0.2083333333 -0.3333333333 -0.5
0.4166666667 -0.3333333333 -0.5
0.625 -0.3333333333 -0.5
0.8333333333 -0.3333333333 -0.5
1.041666667 -0.3333333333 -0.5
1.25 -0.3333333333 -0.5
1.458333333 -0.3333333333 -0.5
1.666666667 -0.3333333333 -0.5
1.875 -0.3333333333 -0.5
2.083333333 -0.3333333333 -0.5
2.291666667 -0.3333333333 -0.5
2.5 0.5 0.5
2.5 0.5 -0.3333333333
2.5 0.5 -0.1666666667
2.5 0.5 0
2.5 0.5 0.1666666667
2.5 0.5 0.3333333333
2.5 0.3333333333 0.5
2.5 0.1666666667 0.5
2.5 0 0.5
2.5 -0.1666666667 0.5
2.5 -0.3333333333 0.5
2.5 0.3333333333 -0.3333333333
2.5 0.3333333333 -0.1666666667
2.5 0.3333333333 -6.938893904e-18
2.5 0.3333333333 0.1666666667
2.5 0.3333333333 0.3333333333
2.5 0.1666666667 -0.3333333333
2.5 0.1666666667 -0.1666666667
2.5 0.1666666667 -1.387778781e-17
2.5 0.1666666667 0.1666666667
2.5 0.1666666667 0.3333333333
2.5 0 -0.3333333333
2.5 0 -0.1666666667
2.5 0 0
2.5 0 0.1666666667
2.5 0 0.3333333333
2.5 -0.1666666667 -0.3333333333
2.5 -0.1666666667 -0.1666666667
2.5 -0.1666666667 0
2.5 -0.1666666667 0.1666666667
2.5 -0.1666666667 0.3333333333
2.5 -0.3333333333 -0.3333333333
2.5 -0.3333333333 -0.1666666667
2.5 -0.3333333333 0
2.5 -0.3333333333 0.1666666667
2.5 -0.3333333333 0.3333333333
0.2083333333 0.5 0.5
0.4166666667 0.5 0.5
0.625 0.5 0.5
0.8333333333 0.5 0.5
1.041666667 0.5 0.5
1.25 0.5 0.5
1.458333333 0.5 0.5
1.666666667 0.5 0.5
1.875 0.5 0.5
2.083333333 0.5 0.5
2.291666667 0.5 0.5
0.2083333333 -0.3333333333 0.5
0.4166666667 -0.3333333333 0.5
0.625 -0.3333333333 0.5
0.8333333333 -0.3333333333 0.5
1.041666667 -0.3333333333 0.5
1.25 -0.3333333333 0.5
1.458333333 -0.3333333333 0.5
1.666666667 -0.3333333333 0.5
1.875 -0.3333333333 0.5
2.083333333 -0.3333333333 0.5
2.291666667 -0.3333333333 0.5
0.2083333333 -0.1666666667 0.5
0.4166666667 -0.1666666667 0.5
0.625 -0.1666666667 0.5
0.8333333333 -0.1666666667 0.5
1.041666667 -0.1666666667 0.5
1.25 -0.1666666667 0.5
1.458333333 -0.1666666667 0.5
1.666666667 -0.1666666667 0.5
1.875 -0.1666666667 0.5
2.083333333 -0.1666666667 0.5
2.291666667 -0.1666666667 0.5
0.2083333333 0 0.5
0.4166666667 0 0.5
0.625 0 0.5
0.8333333333 0 0.5
1.041666667 0 0.5
1.25 0 0.5
1.458333333 0 0.5
1.666666667 0 0.5
1.875 0 0.5
2.083333333 0 0.5
2.291666667 0 0.5
0.2083333333 0.1666666667 0.5
0.4166666667 0.1666666667 0.5
0.625 0.1666666667 0.5
0.8333333333 0.1666666667 0.5
1.041666667 0.1666666667 0.5
1.25 0.1666666667 0.5
1.458333333 0.1666666667 0.5
1.666666667 0.1666666667 0.5
1.875 0.1666666667 0.5
2.083333333 0.1666666667 0.5
2.291666667 0.1666666667 0.5
0.2083333333 0.3333333333 0.5
0.4166666667 0.3333333333 0.5
0.625 0.3333333333 0.5
0.8333333333 0.3333333333 0.5
1.041666667 0.3333333333 0.5
1.25 0.3333333333 0.5
1.458333333 0.3333333333 0.5
1.666666667 0.3333333333 0.5
1.875 0.3333333333 0.5
2.083333333 0.3333333333 0.5
2.291666667 0.3333333333 0.5
0.2083333333 0.5 0.3333333333
0.4166666667 0.5 0.3333333333
0.625 0.5 0.3333333333
0.8333333333 0.5 0.3333333333
1.041666667 0.5 0.3333333333
1.25 0.5 0.3333333333
1.458333333 0.5 0.3333333333
1.666666667 0.5 0.3333333333
1.875 0.5 0.3333333333
2.083333333 0.5 0.3333333333
2.291666667 0.5 0.3333333333
0.2083333333 0.5 0.1666666667
0.4166666667 0.5 0.1666666667
0.625 0.5 0.1666666667
0.8333333333 0.5 0.1666666667
1.041666667 0.5 0.1666666667
1.25 0.5 0.1666666667
1.458333333 0.5 0.1666666667
1.666666667 0.5 0.1666666667
1.875 0.5 0.1666666667
2.083333333 0.5 0.1666666667
2.291666667 0.5 0.1666666667
0.2083333333 0.5 0
0.4166666667 0.5 0
0.625 0.5 0
0.8333333333 0.5 0
1.041666667 0.5 0
1.25 0.5 0
1.458333333 0.5 0
1.666666667 0.5 0
1.875 0.5 0
2.083333333 0.5 0
2.291666667 0.5 0
0.2083333333 0.5 -0.1666666667
0.4166666667 0.5 -0.1666666667
0.625 0.5 -0.1666666667
0.8333333333 0.5 -0.1666666667
1.041666667 0.5 -0.1666666667
1.25 0.5 -0.1666666667
1.458333333 0.5 -0.1666666667
1.666666667 0.5 -0.1666666667
1.875 0.5 -0.1666666667
2.083333333 0.5 -0.1666666667
2.291666667 0.5 -0.1666666667
0.2083333333 0.5 -0.3333333333
0.4166666667 0.5 -0.3333333333
0.625 0.5 -0.3333333333
0.8333333333 0.5 -0.3333333333
1.041666667 0.5 -0.3333333333
1.25 0.5 -0.3333333333
1.458333333 0.5 -0.3333333333
1.666666667 0.5 -0.3333333333
1.875 0.5 -0.3333333333
2.083333333 0.5 -0.3333333333
2.291666667 0.5 -0.3333333333
0.2083333333 -0.3333333333 -0.3333333333
0.4166666667 -0.3333333333 -0.3333333333
0.625 -0.3333333333 -0.3333333333
0.8333333333 -0.3333333333 -0.3333333333
1.041666667 -0.3333333333 -0.3333333333
1.25 -0.3333333333 -0.3333333333
1.458333333 -0.3333333333 -0.3333333333
1.666666667 -0.3333333333 -0.3333333333
1.875 -0.3333333333 -0.3333333333
2.083333333 -0.3333333333 -0.3333333333
2.291666667 -0.3333333333 -0.3333333333
0.2083333333 -0.1666666667 -0.3333333333
0.4166666667 -0.1666666667 -0.3333333333
0.625 -0.1666666667 -0.3333333333
0.8333333333 -0.1666666667 -0.3333333333
1.041666667 -0.1666666667 -0.3333333333
1.25 -0.1666666667 -0.3333333333
1.458333333 -0.1666666667 -0.3333333333
1.666666667 -0.1666666667 -0.3333333333
1.875 -0.1666666667 -0.3333333333
2.083333333 -0.1666666667 -0.3333333333
2.291666667 -0.1666666667 -0.3333333333
0.2083333333 0 -0.3333333333
0.4166666667 1.387778781e-17 -0.3333333333
0.625 -1.387778781e-17 -0.3333333333
0.8333333333 -1.387778781e-17 -0.3333333333
1.041666667 5.551115123e-17 -0.3333333333
1.25 1.387778781e-17 -0.3333333333
[...]
POINT_DATA 1225
SCALARS KDE_TALLY_TAG double 1
LOOKUP_TABLE default
0.005989547749 
0.006434297279 
0.006271891966 
0.006538692058 
0.005972635147 
0.006390526084 
0.005791002173 
0.006159365972 
0.006060106193 
0.005995345579 
0.006470538148 
0.006608119912 
0.006365028081 
0.006309357474 
0.006207312982 
0.006278072887 
0.006458737943 
0.006723821453 
0.006339355826 
0.006042043286 
0.006037575778 
0.00629740009 
0.006078988113 
0.006625079961 
0.006158511284 
0.006354353187 
0.006053048947 
0.00660128542 
0.006235810076 
0.006263223019 
0.006303486991 
0.006904982697 
0.006463689303 
0.005984860022 
0.005804247307 
0.005995592628 
0.006168653189 
0.006075257574 
0.006568216462 
0.007066273066 
0.006193296094 
0.006146718323 
0.006240613475 
0.006255342065 
0.006413435614 
0.006546335648 
0.00639318568 
0.006213429332 
0.006687734962 
0.001256808723 
0.005640678168 
0.005115556745 
0.004510879125 
0.003777634523 
0.003518968367 
0.00306483758 
0.002867566116 
0.002472538275 
0.00226085317 
0.002186943215 
0.002334133871 
0.00126999113 
0.001433789598 
0.001301091566 
0.001132729107 
0.001243353793 
0.001265743408 
0.002137116378 
0.002102544933 
0.00228692558 
0.002367350591 
0.002708198164 
0.003022942436 
0.003126882506 
0.003751847406 
0.004278855203 
0.00496470204 
0.005562691099 
0.005676076594 
0.004934137291 
0.004405150844 
0.003635230555 
0.003238138081 
0.003076477367 
0.002781507071 
0.002353822016 
0.002104052581 
0.002051866954 
0.001997170294 
0.005423609387 
0.004909336099 
0.004357636468 
0.003630014538 
0.003070399125 
0.002983016347 
0.002654851304 
0.002363013185 
0.002146419675 
0.002100068732 
0.002402918443 
0.00552426703 
0.004996864128 
0.004282633087 
0.003901893057 
0.003582388471 
0.002876554207 
0.002723667724 
0.002467503174 
0.002056529104 
0.002313440269 
0.002090239808 
0.005337997911 
0.004823292739 
0.004240297729 
0.003728453549 
0.003503231945 
0.003003989429 
0.002702745877 
0.002230506149 
0.002169175709 
0.001951886446 
0.002092888275 
0.00610786888 
0.005260243742 
0.004766630643 
0.004500247308 
0.003943520226 
0.003212427433 
0.00285536272 
0.002461535543 
0.002366975533 
0.002240280901 
0.002215145414 
0.001421956064 
0.002217491324 
0.002250906195 
0.002210463621 
0.002489263044 
0.00250364522 
0.003098661393 
0.003404858946 
0.003948844331 
0.00437872949 
0.00492915474 
0.005279912889 
0.001347346625 
0.001107630236 
0.001345955689 
0.001295071869 
0.001263690507 
0.005551737882 
0.004884165326 
0.004407204145 
0.004030869341 
0.003553712639 
0.002980080982 
0.002727916153 
0.002570478108 
0.002353529656 
0.002172439009 
0.002025642596 
0.005644606085 
0.005171396981 
0.004460704933 
0.004056809255 
0.003514782584 
0.003201120969 
0.002830297728 
0.00249048089 
0.002095927954 
0.002383339099 
0.002300315357 
0.005643142067 
0.005147461804 
0.004395691796 
0.004145730939 
0.003576476255 
0.003137438688 
0.002867322679 
0.002579760824 
0.002267912083 
0.002098986165 
0.002085935441 
0.006249907168 
0.005305448847 
0.00422434926 
0.003707592288 
0.003250981254 
0.002763389702 
0.002811943442 
0.002492542707 
0.002342041924 
0.002278981663 
0.002223038411 
0.005646681554 
0.005141450065 
0.004291558715 
0.003992430525 
0.003490478237 
0.003258431499 
0.002886769279 
0.002240349656 
0.002303212707 
0.002205892008 
0.002122819781 
0.001303830224 
0.001264234655 
0.001362487479 
0.001119963054 
0.001180164494 
0.00119251247 
0.001178751662 
0.001189634944 
0.001275865933 
0.001187981412 
0.001459936469 
0.001161622311 
0.001432432563 
0.001124462967 
0.001123266897 
0.001207704061 
0.001390573894 
0.001195795273 
0.001263475354 
0.001272546336 
0.001305496434 
0.001317371744 
0.001180866418 
0.001245428922 
0.001105579168 
0.001287298733 
0.001249419977 
0.001169592652 
0.001185429339 
0.001409785728 
0.001300035974 
0.00124360668 
0.001414897173 
0.001217923797 
0.001338860368 
0.001378443735 
0.005538919055 
0.005026675288 
0.004450982406 
0.003911027239 
0.003538287629 
0.003077228353 
0.002685720338 
0.002545075068 
0.00256288208 
0.002361715205 
0.00239928237 
0.0056078708 
0.005062254418 
0.004679237527 
0.004017987613 
0.003467652217 
0.003136406839 
0.002858335581 
0.00248967812 
0.00232784216 
0.002132270122 
0.002131497104 
0.005840067489 
0.005167895039 
0.004298434788 
0.003909044373 
0.003303646416 
0.002934135752 
0.002668579337 
0.002503117584 
0.00235703775 
0.002110746534 
0.002116743325 
0.005885968009 
0.005177338987 
0.004351823936 
0.004032859253 
0.003401649433 
0.003220930949 
0.00286932389 
0.002697276784 
0.002161367143 
0.00216850545 
0.002366693846 
0.005878531223 
0.005359130945 
0.004459154596 
0.003726624115 
0.003409349868 
0.002983569392 
0.002835052158 
0.002838464918 
0.00248498093 
0.002327108604 
0.002254306086 
0.005494544231 
0.004844442867 
0.0042119386 
0.003836100048 
0.003570452087 
0.002982228614 
0.002810434363 
0.002502009032 
0.002168296143 
0.002321704497 
0.002200134706 
0.005726987701 
0.005168222116 
0.004542436461 
0.004033769439 
0.003341957104 
0.003052558526 
0.002772632564 
0.002377457102 
0.002484192391 
0.002128365143 
0.002187050321 
0.005402724317 
0.004691728627 
0.00446137959 
0.004121002716 
0.003377096962 
0.003136524031 
0.002661676183 
0.002412811719 
0.002024568588 
0.002165001369 
0.00204267337 
0.005728991114 
0.005012851017 
0.004560359266 
0.003824237163 
0.003366602474 
0.002952625194 
0.002692207641 
0.002342207768 
0.00208721399 
0.001882463566 
0.001912377452 
0.006233995849 
0.005268535308 
0.004879685591 
0.004142172199 
0.0035445895 
0.003194108873 
0.002842803099 
0.002700129485 
0.002443454455 
0.002370565051 
0.002112322473 
0.005621597827 
0.005250946323 
0.00432925986 
0.003899396591 
0.003467715146 
0.003223408514 
0.003010627257 
0.002494516403 
0.00236007829 
0.00210452273 
0.00218126143 
0.005387063587 
0.004664631283 
0.004222470627 
0.00376733903 
0.003375308014 
0.002838478641 
0.002661027607 
0.00247895536 
0.002110606512 
0.001974265741 
0.002091664818 
0.005907866424 
0.005194637923 
0.004909373874 
0.004337474503 
0.003440451279 
0.002947965394 
0.002628591265 
0.002489932099 
0.002217247417 
0.002027528089 
0.002016670191 
0.005566947463 
0.004857196073 
0.00468928806 
0.003683500811 
0.00329271029 
0.003040326367 
0.002803414738 
0.002542655059 
0.002233904864 
0.002164065128 
0.001950221831 
0.00554725111 
0.004716991 
0.004091651325 
0.003496394613 
0.003287889541 
0.002943495716 
0.002472842144 
0.002426174232 
0.002189792395 
0.00218645271 
0.002343734827 
0.006069825877 
0.005369536576 
0.004419333003 
0.003880301195 
0.003553401046 
0.003199518696 
0.002766465966 
0.002703478038 
0.002385245866 
0.002284540938 
0.002400827353 
0.006172494985 
0.005254472326 
0.004819394134 
0.004563046165 
0.00387733533 
0.00354328614 
0.002991223249 
0.002757590912 
0.002171351829 
0.002242880534 
0.002362273264 
0.00554086869 
0.004722063656 
0.004169485326 
0.003806267488 
0.00326235625 
0.002826665177 
0.002767456587 
0.002432723271 
0.002161112543 
0.002099208505 
0.002093158566 
0.00546755377 
0.004878265002 
0.004310746727 
0.003858174815 
0.00333048695 
0.002935963883 
0.002613435231 
0.002382233509 
0.001990265854 
0.001904252488 
0.002024851163 
0.006007935411 
0.005219915496 
0.004636533496 
0.004001378953 
0.003720376242 
0.003282482316 
0.002649760895 
0.0023612702 
0.002122918196 
0.002071336334 
0.002135881577 
0.005858368448 
0.005131855294 
0.004653710513 
0.004047825452 
0.0036087662 
0.003016455286 
0.002930437894 
0.002525408186 
0.00237197003 
0.002354817279 
0.00215089458 
0.005591861421 
0.005089020213 
0.004443017516 
0.003898117209 
0.003310268288 
0.003153363742 
0.002597079135 
0.002531933195 
0.002320001963 
0.00234172818 
0.002203775109 
0.004937721537 
0.004408216249 
0.004251548134 
0.003593939643 
0.003240247038 
0.002864865437 
0.002394128126 
0.002431139822 
0.00225253832 
0.002454806023 
0.002098433794 
0.005494173154 
0.005052641116 
0.004325862308 
0.003884020651 
0.003452154463 
0.003058626462 
0.002746636499 
0.002541769517 
0.002431860417 
0.002375296378 
0.002384196263 
0.005951315303 
0.005403223691 
0.004591738871 
0.00399156255 
0.003697981646 
0.002998464984 
0.002926400054 
0.002610318698 
0.002254435154 
0.001909628206 
0.002211319035 
0.005680421311 
0.004948364842 
0.004520873632 
0.003749534351 
0.003563234586 
0.003018861055 
0.002804404928 
0.002625807711 
0.002370059801 
0.002409349953 
0.002146314627 
0.005399436367 
0.0050941738 
0.004233557323 
0.003689838597 
0.003549911199 
0.002973445039 
0.002716737263 
0.002550901856 
0.002304737101 
0.002072938603 
0.002334662749 
0.005344065006 
0.004904179809 
0.004366888616 
0.003657770762 
0.003364079128 
0.003140421525 
0.002796110788 
0.002506199316 
0.002520501117 
0.002283012417 
0.002326385812 
0.00590230676 
0.005100371178 
0.004667972965 
0.004218896591 
0.003510523934 
0.003287046898 
0.002927351863 
0.002533371465 
0.002309716443 
0.002211688339 
0.002314810603 
0.005799965111 
0.005400038042 
0.004546125621 
0.004112228123 
0.003651645802 
0.003108840839 
0.002761150471 
0.002597666873 
0.002406566105 
0.002461908103 
0.002435702964 
0.00529282873 
0.004743276313 
0.004412791139 
0.003732882903 
0.003283755344 
0.003075774474 
0.002773764354 
0.002593548118 
0.002116329582 
0.002198137907 
0.001917316885 
0.005500817111 
0.004691356331 
0.004083851692 
0.003566446855 
0.003333064184 
0.003221628089 
0.002575175905 
0.00232267892 
0.002264536283 
0.002320902339 
0.002500886004 
0.005641208238 
0.004905543105 
0.00445680057 
0.004089429164 
0.003789135776 
0.003381024713 
0.002754544413 
0.002610964569 
0.002581153735 
0.002366897443 
0.002357550105 
0.005699468775 
0.004777874965 
0.004220358195 
0.003900055242 
0.003704178167 
0.003342932959 
0.002843133642 
0.002247580321 
0.002234204292 
0.002161690593 
0.002258922875 
0.005950693564 
0.005371597633 
0.0047529255 
0.003989370836 
0.003459672275 
0.003247107789 
0.002759417213 
0.002621339515 
0.00257019155 
0.002522821121 
0.002518390912 
0.005883146456 
0.005073139747 
0.00431956744 
0.004081954756 
0.003747283699 
0.003204601061 
0.002914424199 
0.002805178141 
0.00232782115 
0.002129446252 
0.002282359237 
0.000148670588 
0.0001573151132 
0.0001261301814 
0.0001154477559 
0.0001137299733 
0.0001227933524 
0.0001152878699 
0.0001036631179 
9.490977297e-05 
0.0001703408618 
0.0001123229331 
9.58229516e-05 
0.0001627213589 
9.871014214e-05 
9.107603787e-05 
0.0001154285381 
0.000104242104 
0.0001210278082 
0.0001131907968 
0.0001134473694 
0.0001541180995 
0.0001111795106 
0.0001212755797 
0.0001109449549 
0.0001227154709 
0.0001132706132 
0.0001319152542 
0.0001294293464 
0.0001927919684 
0.0001320856103 
0.0001562706153 
0.0001264155571 
0.0001218243544 
0.0001186265741 
0.0001027250855 
0.0001089620043 
9.799095363e-05 
9.964296076e-05 
9.349308181e-05 
0.0001025110363 
0.0001355079018 
0.0001289045145 
0.0001376339213 
0.0001072094772 
0.0001087436854 
0.0001012008493 
0.0001102690108 
9.898860689e-05 
0.0001616143869 
0.0001007443994 
9.997349853e-05 
0.0001455423496 
0.0001371550673 
0.0001293964616 
0.0002303163626 
0.0001179036028 
0.0001131437462 
9.841144987e-05 
0.0001079278389 
9.564413648e-05 
9.999297473e-05 
0.0002089319823 
0.000141877564 
0.0001194794251 
0.0001144229108 
0.0001680817813 
0.0001126925535 
0.0001103203715 
0.0001121662892 
9.145381914e-05 
9.306422741e-05 
0.0001743015314 
0.0001010142959 
0.0001373240561 
0.0001273578025 
0.0001460698489 
0.0001298958089 
0.0001113355916 
0.0002038282786 
0.0001064193016 
9.738424729e-05 
0.000100640823 
0.0001042413586 
0.0001218589541 
8.727570444e-05 
9.645382572e-05 
0.0001096764958 
0.0001024072185 
9.827458666e-05 
0.0001028606031 
0.0001128983755 
0.0001106245257 
0.0001146896033 
0.0001238074841 
0.000145280812 
0.0001304016962 
9.924520151e-05 
9.838811144e-05 
9.624369332e-05 
0.0001028134742 
0.0001086577221 
0.0001348027973 
0.0001255504636 
0.0002075702484 
0.0001344325538 
0.0001128006782 
0.0001548260802 
0.0001049951928 
0.0001020732214 
0.0001050778438 
0.0001037330525 
0.0001087079045 
0.0001636188586 
0.0001302477008 
0.0001231374932 
0.0001920927935 
0.0001372876115 
9.773504353e-05 
0.000103981989 
9.871773754e-05 
9.921816731e-05 
0.0001440544151 
9.785409727e-05 
0.0001575239224 
0.0001506094313 
0.0001251426664 
0.0001230193192 
0.0001273899535 
0.000103496696 
0.0001036411084 
0.0001282053822 
0.0001062354927 
9.879833192e-05 
0.0001604450772 
0.0001416572008 
0.0001407246571 
0.0001539140616 
0.0002020141768 
0.000115784252 
0.0001562636162 
0.0001062396944 
0.0001057061499 
0.0001020238491 
9.566488063e-05 
9.535565207e-05 
0.0001616956393 
0.0001247547209 
0.0001139265621 
0.0001116161945 
0.000111179407 
9.864993944e-05 
0.0001073579774 
9.92764996e-05 
0.0001005797985 
8.859205325e-05 
9.785841678e-05 
0.0001026446791 
9.682191375e-05 
9.129484834e-05 
0.0001482030912 
0.0001339852202 
0.0001399330645 
8.921160584e-05 
9.517161132e-05 
0.0001367056538 
0.0001083878464 
9.781340843e-05 
9.32254493e-05 
9.168274276e-05 
0.000136671877 
0.0001064857602 
0.0001074187579 
0.0001079881555 
9.10908441e-05 
0.0001357598691 
9.28168837e-05 
9.310795056e-05 
0.0001529609822 
0.0001005153808 
9.86864967e-05 
0.000159278738 
8.986683086e-05 
9.775059702e-05 
9.464847476e-05 
0.0001004675596 
9.860488331e-05 
9.676962818e-05 
0.0001256899666 
0.0002210897562 
9.985360345e-05 
0.0001168940158 
9.620009982e-05 
0.0001376091486 
0.0002064157027 
0.0001167697631 
0.0001529720054 
0.0001110788444 
0.000108212794 
9.888184078e-05 
0.0001111467188 
0.0001092983773 
0.0001021811936 
0.0001038328982 
0.0001440523471 
0.000133096367 
0.000124014642 
0.0001477750444 
0.0001092926873 
9.839826322e-05 
0.0001012412716 
0.0001000287853 
0.0001141948865 
9.847226132e-05 
0.0001065978621 
0.0001522460242 
0.0002691951928 
0.0001229045642 
0.0001535492477 
0.000117943498 
0.000112591365 
0.0001059082231 
0.0001078548238 
0.0001078283584 
9.762280458e-05 
0.0001207111672 
0.0001421196284 
0.0001250299251 
0.0001238251985 
0.0001265855917 
0.000108156829 
0.0001017985687 
0.0001191112156 
0.0001153960817 
0.0001036017149 
0.0001027766471 
0.0001332228867 
0.0001240006554 
0.0001241279834 
0.0001307066147 
0.000125394346 
0.0001158944714 
0.0001076483482 
0.0001162305378 
0.000134975107 
9.778363847e-05 
9.812633852e-05 
9.577733022e-05 
0.0001369508382 
0.0001265392389 
0.0001135725694 
0.0001184792766 
0.0002119063774 
0.0001228041416 
0.0001047875249 
0.0001071218885 
0.0001577367665 
9.552719616e-05 
9.531400783e-05 
0.0001392779617 
0.0001218995503 
0.000117430285 
0.0001421886642 
0.0001162690307 
0.0001097395472 
0.0001112459903 
0.0001003519446 
0.0001372561413 
8.470531695e-05 
9.5702658e-05 
0.0001356737145 
0.0001269183344 
0.0001357023661 
0.0001364691315 
0.0001095783243 
0.000106263537 
0.000105119466 
0.0001140121131 
9.023091944e-05 
9.455960714e-05 
0.0001038326478 
0.0001536709591 
0.0001251806823 
0.0001261191766 
0.0001964958171 
0.0001101030525 
0.000105315095 
9.683330369e-05 
9.896730539e-05 
0.0001037505613 
9.960592407e-05 
9.678600549e-05 
0.0001488111733 
0.0001300746559 
0.0001195801028 
0.0001183411098 
0.000121997718 
0.0001138149521 
0.0001022955991 
0.0001088212316 
0.0001006922385 
0.0001588292223 
0.0001106225636 
0.0001587348783 
0.0001238754348 
0.0001190409962 
0.0001110707226 
0.000154082133 
0.0001065752361 
9.750292031e-05 
0.0001082289973 
9.981944056e-05 
0.0001046115442 
0.0001075774629 
0.000132879141 
0.0001268713225 
0.0001338412266 
0.0001154675984 
0.0001275487862 
0.0001202777428 
0.000113462703 
0.0001103755372 
0.0001017630893 
0.0001005206314 
9.670078098e-05 
0.0001337663352 
0.0001306584611 
0.0001227331837 
0.000129104553 
0.0001157998487 
0.0002319357831 
0.0001091650089 
0.0001151286708 
0.0001030900366 
9.964256537e-05 
0.0001292232664 
0.0001598165631 
0.0001248425232 
0.0001342196621 
0.0001193606135 
0.0001134361293 
0.0001219577982 
9.887195964e-05 
0.0001001666018 
9.575427189e-05 
0.0001204661453 
0.0001549523475 
0.0001400897485 
0.0001288344971 
0.0001273496034 
0.0001261136586 
0.0001238085033 
0.0001141994177 
0.0001108311329 
9.932001861e-05 
0.0001328036433 
0.0001767426328 
0.0001113994295 
0.0001569275333 
0.0001203673181 
0.0001219224502 
0.0001287494359 
0.0001279349978 
0.000113536492 
0.0001292877635 
8.883841848e-05 
0.0001090592308 
0.0001032806694 
0.0001042009121 
0.0001338235696 
0.0001326319415 
0.0001246413558 
0.0001309685969 
0.0001143018893 
0.000103314445 
9.536584704e-05 
9.278942392e-05 
0.0001054826622 
9.37078209e-05 
0.0001689395275 
0.0001368428477 
0.0001263664449 
0.0001239335181 
0.0001142888082 
0.0001112411505 
0.0001331333845 
0.0001032799682 
0.0001029213971 
0.0001010845066 
0.0001023970683 
9.238302121e-05 
0.0001426989846 
0.000124752287 
0.0001295146432 
0.0001326129834 
0.0001225288967 
0.0001119540201 
0.0002429291143 
9.791688232e-05 
9.058074713e-05 
0.0001144621653 
0.0001636315101 
0.0001388549997 
0.0001292767163 
0.0001306783806 
0.0001561700348 
0.0001487865527 
0.0001068784563 
0.0001210428598 
0.0001123927004 
9.130812328e-05 
9.78716774e-05 
0.0001016857113 
0.0001345874678 
0.0001232105621 
0.0001134968682 
0.000119217249 
0.0001282818685 
0.0001125917051 
0.0001101755997 
9.152445001e-05 
9.844678923e-05 
0.0001364331989 
0.0002131822074 
0.0001455298048 
0.0001539992357 
0.0001932612626 
0.0001099976931 
0.0002065298461 
0.0001474843054 
0.0001150890712 
9.836023606e-05 
0.0001168455842 
8.987194114e-05 
9.147782424e-05 
0.0001495254604 
0.0001482018985 
0.0002622273683 
0.0001197600839 
0.0001130687106 
0.0001119024708 
0.0001033953161 
0.0001126272183 
0.0001144830792 
9.497974241e-05 
9.944412594e-05 
0.0001385097838 
0.0001404819478 
0.0001255123978 
0.0001123947934 
0.0001224056102 
0.0001340973073 
0.0001145679862 
0.0001188055737 
0.0001031112775 
0.0001531074123 
0.0001047155927 
0.0001318983286 
0.0001229376554 
0.0001133995451 
0.000155531591 
0.0001352559559 
0.0001069221701 
0.0001123719422 
0.0001038366192 
9.387884585e-05 
0.0001098246277 
0.0001289411536 
0.0001269441678 
0.0001244949568 
0.0001217265669 
0.0001848918688 
0.0001270398378 
0.0001193634993 
0.0001177437629 
0.0001753185737 
0.0001609703739 
0.0002495733875 
9.825442288e-05 
0.0001312135194 
0.0001437314156 
0.0001202994527 
0.0001239376689 
0.0001284323151 
0.0001077692742 
0.0001183063941 
0.0001038703707 
0.0001096969645 
0.0001030797115 
0.0001297889017 
0.0001392458694 
0.0001261650662 
0.0001308993535 
0.000114713245 
0.0001188365724 
0.0001197166802 
0.0001028186686 
0.0001097273032 
0.0001100779648 
9.261490158e-05 
0.0001125940707 
0.0001663919055 
0.0001703806865 
0.0001167730299 
0.0001077259884 
0.0001070977996 
0.0001089672304 
0.0001046582818 
0.0001060394197 
0.0001061379697 
0.0001370006588 
0.0001564431871 
0.0001599752321 
0.0001385864703 
0.0001209550481 
0.0001159342933 
0.0001248741243 
0.0001107384894 
0.000101150958 
0.0001076332652 
0.0001005337535 
0.0001089420576 
9.958415699e-05 
0.0001277248742 
0.0001197431268 
0.0001500746827 
0.0001286687802 
0.000115378567 
0.0001055714147 
0.0001003826179 
0.0001141026453 
0.0001880816755 
0.0001023785275 
0.000101211381 
0.0001400206142 
0.0001328370809 
0.0001918742766 
9.963697152e-05 
0.0001128806737 
0.0001108153109 
0.0001067323352 
0.0001097916976 
0.0001062786007 
9.838443851e-05 
9.297001881e-05 
0.0001377507905 
0.0001432308474 
0.0001274158302 
0.0001236990787 
0.0001379601067 
0.0001154815092 
0.000101847649 
0.0001139139045 
0.000110701916 
9.772166463e-05 
0.0001592198498 
0.0001459820373 
0.0001188780785 
0.0001176689346 
0.0001169513856 
0.0001128968367 
0.0001131251421 
0.0001102770055 
9.97857806e-05 
0.0001492617539 
0.0001467031013 
0.0002689989677 
0.0001459176889 
0.0001204104671 
0.0001179481174 
0.0001523364365 
0.0001242307384 
0.0001075046613 
0.0001107484999 
0.0001064338043 
9.597009111e-05 
0.0001874977566 
0.0001017714907 
0.0001834428815 
0.0001190042332 
0.0001457349841 