# vtk DataFile Version 3.0
MOAB 4.9.0
ASCII
DATASET UNSTRUCTURED_GRID
POINTS 1225 double
0 -0.5 0.5
0 0.5 0.5
0 -0.3333333333 0.5
0 -0.1666666667 0.5
0 0 0.5
0 0.1666666667 0.5
0 0.3333333333 0.5
0 0.5 -0.5
0 0.5 0.3333333333
0 0.5 0.1666666667
0 0.5 0
0 0.5 -0.1666666667
0 0.5 -0.3333333333
0 -0.5 -0.5
0 0.3333333333 -0.5
0 0.1666666667 -0.5
0 0 -0.5
0 -0.1666666667 -0.5
0 -0.3333333333 -0.5
0 -0.5 -0.3333333333
0 -0.5 -0.1666666667
0 -0.5 0
0 -0.5 0.1666666667
0 -0.5 0.3333333333
0 -0.3333333333 0.3333333333
0 -0.1666666667 0.3333333333
0 -6.938893904e-18 0.3333333333
0 0.1666666667 0.3333333333
0 0.3333333333 0.3333333333
0 -0.3333333333 0.1666666667
0 -0.1666666667 0.1666666667
0 -1.387778781e-17 0.1666666667
0 0.1666666667 0.1666666667
0 0.3333333333 0.1666666667
0 -0.3333333333 0
0 -0.1666666667 0
0 0 0
0 0.1666666667 0
0 0.3333333333 0
0 -0.3333333333 -0.1666666667
0 -0.1666666667 -0.1666666667
0 0 -0.1666666667
0 0.1666666667 -0.1666666667
0 0.3333333333 -0.1666666667
0 -0.3333333333 -0.3333333333
0 -0.1666666667 -0.3333333333
0 0 -0.3333333333
0 0.1666666667 -0.3333333333
0 0.3333333333 -0.3333333333
2.5 -0.5 -0.5
0.2083333333 -0.5 -0.5
0.4166666667 -0.5 -0.5
0.625 -0.5 -0.5
0.8333333333 -0.5 -0.5
1.041666667 -0.5 -0.5
1.25 -0.5 -0.5
1.458333333 -0.5 -0.5
1.666666667 -0.5 -0.5
1.875 -0.5 -0.5
2.083333333 -0.5 -0.5
2.291666667 -0.5 -0.5
2.5 -0.5 0.5
2.5 -0.5 0.3333333333
2.5 -0.5 0.1666666667
2.5 -0.5 0
2.5 -0.5 -0.1666666667
2.5 -0.5 -0.3333333333
2.291666667 -0.5 0.5
2.083333333 -0.5 0.5
1.875 -0.5 0.5
1.666666667 -0.5 0.5
1.458333333 -0.5 0.5
1.25 -0.5 0.5
1.041666667 -0.5 0.5
0.8333333333 -0.5 0.5
0.625 -0.5 0.5
0.4166666667 -0.5 0.5
0.2083333333 -0.5 0.5
0.2083333333 -0.5 -0.3333333333
0.4166666667 -0.5 -0.3333333333
0.625 -0.5 -0.3333333333
0.8333333333 -0.5 -0.3333333333
1.041666667 -0.5 -0.3333333333
1.25 -0.5 -0.3333333333
1.458333333 -0.5 -0.3333333333
1.666666667 -0.5 -0.3333333333
1.875 -0.5 -0.3333333333
2.083333333 -0.5 -0.3333333333
2.291666667 -0.5 -0.3333333333
0.2083333333 -0.5 -0.1666666667
0.4166666667 -0.5 -0.1666666667
0.625 -0.5 -0.1666666667
0.8333333333 -0.5 -0.1666666667
1.041666667 -0.5 -0.1666666667
1.25 -0.5 -0.1666666667
1.458333333 -0.5 -0.1666666667
1.666666667 -0.5 -0.1666666667
1.875 -0.5 -0.1666666667
2.083333333 -0.5 -0.1666666667
2.291666667 -0.5 -0.1666666667
0.2083333333 -0.5 0
0.4166666667 -0.5 0
0.625 -0.5 0
0.8333333333 -0.5 0
1.041666667 -0.5 0
1.25 -0.5 0
1.458333333 -0.5 0
1.666666667 -0.5 0
1.875 -0.5 0
2.083333333 -0.5 0
2.291666667 -0.5 0
0.2083333333 -0.5 0.1666666667
0.4166666667 -0.5 0.1666666667
0.625 -0.5 0.1666666667
0.8333333333 -0.5 0.1666666667
1.041666667 -0.5 0.1666666667
1.25 -0.5 0.1666666667
1.458333333 -0.5 0.1666666667
1.666666667 -0.5 0.1666666667
1.875 -0.5 0.1666666667
2.083333333 -0.5 0.1666666667
2.291666667 -0.5 0.1666666667
0.2083333333 -0.5 0.3333333333
0.4166666667 -0.5 0.3333333333
0.625 -0.5 0.3333333333
0.8333333333 -0.5 0.3333333333
1.041666667 -0.5 0.3333333333
1.25 -0.5 0.3333333333
1.458333333 -0.5 0.3333333333
1.666666667 -0.5 0.3333333333
1.875 -0.5 0.3333333333
2.083333333 -0.5 0.3333333333
2.291666667 -0.5 0.3333333333
2.5 0.5 -0.5
2.291666667 0.5 -0.5
2.083333333 0.5 -0.5
1.875 0.5 -0.5
1.666666667 0.5 -0.5
1.458333333 0.5 -0.5
1.25 0.5 -0.5
1.041666667 0.5 -0.5
0.8333333333 0.5 -0.5
0.625 0.5 -0.5
0.4166666667 0.5 -0.5
0.2083333333 0.5 -0.5
2.5 -0.3333333333 -0.5
2.5 -0.1666666667 -0.5
2.5 0 -0.5
2.5 0.1666666667 -0.5
2.5 0.3333333333 -0.5
0.2083333333 0.3333333333 -0.5
0.4166666667 0.3333333333 -0.5
0.625 0.3333333333 -0.5
0.8333333333 0.3333333333 -0.5
1.041666667 0.3333333333 -0.5
1.25 0.3333333333 -0.5
1.458333333 0.3333333333 -0.5
1.666666667 0.3333333333 -0.5
1.875 0.3333333333 -0.5
2.083333333 0.3333333333 -0.5
2.291666667 0.3333333333 -0.5
0.2083333333 0.1666666667 -0.5
0.4166666667 0.1666666667 -0.5
0.625 0.1666666667 -0.5
0.8333333333 0.1666666667 -0.5
1.041666667 0.1666666667 -0.5
1.25 0.1666666667 -0.5
1.458333333 0.1666666667 -0.5
1.666666667 0.1666666667 -0.5
1.875 0.1666666667 -0.5
2.083333333 0.1666666667 -0.5
2.291666667 0.1666666667 -0.5
0.2083333333 0 -0.5
0.4166666667 0 -0.5
0.625 0 -0.5
0.8333333333 0 -0.5
1.041666667 0 -0.5
1.25 0 -0.5
1.458333333 0 -0.5
1.666666667 0 -0.5
1.875 0 -0.5
2.083333333 0 -0.5
2.291666667 0 -0.5
0.2083333333 -0.1666666667 -0.5
0.4166666667 -0.1666666667 -0.5
0.625 -0.1666666667 -0.5
0.8333333333 -0.1666666667 -0.5
1.041666667 -0.1666666667 -0.5
1.25 -0.1666666667 -0.5
1.458333333 -0.1666666667 -0.5
1.666666667 -0.1666666667 -0.5
1.875 -0.1666666667 -0.5
2.083333333 -0.1666666667 -0.5
2.291666667 -0.1666666667 -0.5
0.2083333333 -0.3333333333 -0.5
0.4166666667 -0.3333333333 -0.5
0.625 -0.3333333333 -0.5
0.8333333333 -0.3333333333 -0.5
1.041666667 -0.3333333333 -0.5
1.25 -0.3333333333 -0.5
1.458333333 -0.3333333333 -0.5
1.666666667 -0.3333333333 -0.5
1.875 -0.3333333333 -0.5
2.083333333 -0.3333333333 -0.5
2.291666667 -0.3333333333 -0.5
2.5 0.5 0.5
2.5 0.5 -0.3333333333
2.5 0.5 -0.1666666667
2.5 0.5 0
2.5 0.5 0.1666666667
2.5 0.5 0.3333333333
2.5 0.3333333333 0.5
2.5 0.1666666667 0.5
2.5 0 0.5
2.5 -0.1666666667 0.5
2.5 -0.3333333333 0.5
2.5 0.3333333333 -0.3333333333
2.5 0.3333333333 -0.1666666667
2.5 0.3333333333 -6.938893904e-18
2.5 0.3333333333 0.1666666667
2.5 0.3333333333 0.3333333333
2.5 0.1666666667 -0.3333333333
2.5 0.1666666667 -0.1666666667
2.5 0.1666666667 -1.387778781e-17
2.5 0.1666666667 0.1666666667
2.5 0.1666666667 0.3333333333
2.5 0 -0.3333333333
2.5 0 -0.1666666667
2.5 0 0
2.5 0 0.1666666667
2.5 0 0.3333333333
2.5 -0.1666666667 -0.3333333333
2.5 -0.1666666667 -0.1666666667
2.5 -0.1666666667 0
2.5 -0.1666666667 0.1666666667
2.5 -0.1666666667 0.3333333333
2.5 -0.3333333333 -0.3333333333
2.5 -0.3333333333 -0.1666666667
2.5 -0.3333333333 0
2.5 -0.3333333333 0.1666666667
2.5 -0.3333333333 0.3333333333
0.2083333333 0.5 0.5
0.4166666667 0.5 0.5
0.625 0.5 0.5
0.8333333333 0.5 0.5
1.041666667 0.5 0.5
1.25 0.5 0.5
1.458333333 0.5 0.5
1.666666667 0.5 0.5
1.875 0.5 0.5
2.083333333 0.5 0.5
2.291666667 0.5 0.5
0.2083333333 -0.3333333333 0.5
0.4166666667 -0.3333333333 0.5
0.625 -0.3333333333 0.5
0.8333333333 -0.3333333333 0.5
1.041666667 -0.3333333333 0.5
1.25 -0.3333333333 0.5
1.458333333 -0.3333333333 0.5
1.666666667 -0.3333333333 0.5
1.875 -0.3333333333 0.5
2.083333333 -0.3333333333 0.5
2.291666667 -0.3333333333 0.5
0.2083333333 -0.1666666667 0.5
0.4166666667 -0.1666666667 0.5
0.625 -0.1666666667 0.5
0.8333333333 -0.1666666667 0.5
1.041666667 -0.1666666667 0.5
1.25 -0.1666666667 0.5
1.458333333 -0.1666666667 0.5
1.666666667 -0.1666666667 0.5
1.875 -0.1666666667 0.5
2.083333333 -0.1666666667 0.5
2.291666667 -0.1666666667 0.5
0.2083333333 0 0.5
0.4166666667 0 0.5
0.625 0 0.5
0.8333333333 0 0.5
1.041666667 0 0.5
1.25 0 0.5
1.458333333 0 0.5
1.666666667 0 0.5
1.875 0 0.5
2.083333333 0 0.5
2.291666667 0 0.5
0.2083333333 0.1666666667 0.5
0.4166666667 0.1666666667 0.5
0.625 0.1666666667 0.5
0.8333333333 0.1666666667 0.5
1.041666667 0.1666666667 0.5
1.25 0.1666666667 0.5
1.458333333 0.1666666667 0.5
1.666666667 0.1666666667 0.5
1.875 0.1666666667 0.5
2.083333333 0.1666666667 0.5
2.291666667 0.1666666667 0.5
0.2083333333 0.3333333333 0.5
0.4166666667 0.3333333333 0.5
0.625 0.3333333333 0.5
0.8333333333 0.3333333333 0.5
1.041666667 0.3333333333 0.5
1.25 0.3333333333 0.5
1.458333333 0.3333333333 0.5
1.666666667 0.3333333333 0.5
1.875 0.3333333333 0.5
2.083333333 0.3333333333 0.5
2.291666667 0.3333333333 0.5
0.2083333333 0.5 0.3333333333
0.4166666667 0.5 0.3333333333
0.625 0.5 0.3333333333
0.8333333333 0.5 0.3333333333
1.041666667 0.5 0.3333333333
1.25 0.5 0.3333333333
1.458333333 0.5 0.3333333333
1.666666667 0.5 0.3333333333
1.875 0.5 0.3333333333
2.083333333 0.5 0.3333333333
2.291666667 0.5 0.3333333333
0.2083333333 0.5 0.1666666667
0.4166666667 0.5 0.1666666667
0.625 0.5 0.1666666667
0.8333333333 0.5 0.1666666667
1.041666667 0.5 0.1666666667
1.25 0.5 0.1666666667
1.458333333 0.5 0.1666666667
1.666666667 0.5 0.1666666667
1.875 0.5 0.1666666667
2.083333333 0.5 0.1666666667
2.291666667 0.5 0.1666666667
0.2083333333 0.5 0
0.4166666667 0.5 0
0.625 0.5 0
0.8333333333 0.5 0
1.041666667 0.5 0
1.25 0.5 0
1.458333333 0.5 0
1.666666667 0.5 0
1.875 0.5 0
2.083333333 0.5 0
2.291666667 0.5 0
0.2083333333 0.5 -0.1666666667
0.4166666667 0.5 -0.1666666667
0.625 0.5 -0.1666666667
0.8333333333 0.5 -0.1666666667
1.041666667 0.5 -0.1666666667
1.25 0.5 -0.1666666667
1.458333333 0.5 -0.1666666667
1.666666667 0.5 -0.1666666667
1.875 0.5 -0.1666666667
2.083333333 0.5 -0.1666666667
2.291666667 0.5 -0.1666666667
0.2083333333 0.5 -0.3333333333
0.4166666667 0.5 -0.3333333333
0.625 0.5 -0.3333333333
0.8333333333 0.5 -0.3333333333
1.041666667 0.5 -0.3333333333
1.25 0.5 -0.3333333333
1.458333333 0.5 -0.3333333333
1.666666667 0.5 -0.3333333333
1.875 0.5 -0.3333333333
2.083333333 0.5 -0.3333333333
2.291666667 0.5 -0.3333333333
0.2083333333 -0.3333333333 -0.3333333333
0.4166666667 -0.3333333333 -0.3333333333
0.625 -0.3333333333 -0.3333333333
0.8333333333 -0.3333333333 -0.3333333333
1.041666667 -0.3333333333 -0.3333333333
1.25 -0.3333333333 -0.3333333333
1.458333333 -0.3333333333 -0.3333333333
1.666666667 -0.3333333333 -0.3333333333
1.875 -0.3333333333 -0.3333333333
2.083333333 -0.3333333333 -0.3333333333
2.291666667 -0.3333333333 -0.3333333333
0.2083333333 -0.1666666667 -0.3333333333
0.4166666667 -0.1666666667 -0.3333333333
0.625 -0.1666666667 -0.3333333333
0.8333333333 -0.1666666667 -0.3333333333
1.041666667 -0.1666666667 -0.3333333333
1.25 -0.1666666667 -0.3333333333
1.458333333 -0.1666666667 -0.3333333333
1.666666667 -0.1666666667 -0.3333333333
1.875 -0.1666666667 -0.3333333333
2.083333333 -0.1666666667 -0.3333333333
2.291666667 -0.1666666667 -0.3333333333
0.2083333333 0 -0.3333333333
0.4166666667 1.387778781e-17 -0.3333333333
0.625 -1.387778781e-17 -0.3333333333
0.8333333333 -1.387778781e-17 -0.3333333333
1.041666667 5.551115123e-17 -0.3333333333
1.25 1.387778781e-17 -0.3333333333
[...]
POINT_DATA 1225
SCALARS KDE_TALLY_TAG double 1
LOOKUP_TABLE default
2.395015282 
2.428746847 
2.377472692 
2.471638269 
2.399172677 
2.400473659 
2.416085315 
2.407623572 
2.406573709 
2.350305024 
2.405097981 
2.464161034 
2.395756635 
2.458431659 
2.384152386 
2.393068063 
2.401405701 
2.44881619 
2.437146507 
2.381133787 
2.417154863 
2.410278806 
2.382480561 
2.409230631 
2.453584474 
2.441280405 
2.418230783 
2.501231794 
2.404841759 
2.46469665 
2.451231161 
2.454114798 
2.394101334 
2.394976414 
2.385196439 
2.446329211 
2.483605294 
2.439018753 
2.47237994 
2.425905893 
2.459717084 
2.440668228 
2.392323782 
2.400347202 
2.428798106 
2.406847564 
2.40691211 
2.391425776 
2.418538021 
1.402159479 
2.388400337 
2.388813744 
2.281304674 
2.254370388 
2.117211647 
2.073913052 
1.982966817 
1.824531973 
1.748127854 
1.67026169 
1.49790642 
1.370117237 
1.436471068 
1.354479221 
1.369961114 
1.387445463 
1.427879015 
1.566106862 
1.669178379 
1.748745709 
1.85754748 
1.949511885 
2.022945993 
2.111285055 
2.178229189 
2.305777559 
2.332522153 
2.341496155 
2.41189967 
2.348830503 
2.318336686 
2.198462144 
2.109210541 
2.096368248 
1.974897618 
1.850478928 
1.757935717 
1.62063934 
1.470705724 
2.383429156 
2.301945383 
2.275942443 
2.223032505 
2.098613642 
2.083495484 
1.914601902 
1.866225184 
1.726747645 
1.662778105 
1.536950341 
2.419461316 
2.312637855 
2.264204469 
2.213062515 
2.178719792 
2.015920096 
1.92497585 
1.845393621 
1.744328015 
1.645847694 
1.531067826 
2.361565324 
2.323227179 
2.263268213 
2.246236374 
2.183206406 
2.045479043 
1.952703271 
1.83644285 
1.805824608 
1.63321635 
1.506855768 
2.440829516 
2.339025422 
2.256347703 
2.280379597 
2.140887445 
1.991484864 
1.94960172 
1.826878249 
1.730903328 
1.626275674 
1.506171089 
1.380114018 
1.555353759 
1.660408793 
1.772931462 
1.860673746 
1.898531678 
2.076152125 
2.142713373 
2.175358794 
2.287284872 
2.331809968 
2.330221164 
1.398467882 
1.403220634 
1.387191161 
1.379880287 
1.38994738 
2.394843103 
2.330790461 
2.294079306 
2.179838181 
2.110240502 
2.033353227 
1.990574055 
1.907495912 
1.742921992 
1.648899862 
1.522056359 
2.380785013 
2.312463602 
2.217499392 
2.184341226 
2.122515451 
2.121312434 
2.013593401 
1.871916428 
1.695955626 
1.65861009 
1.548045121 
2.381812536 
2.359492447 
2.293319301 
2.214063213 
2.149861986 
2.062817593 
1.971437362 
1.893611577 
1.745981281 
1.604511359 
1.529285484 
2.428932953 
2.349319392 
2.246704974 
2.216789151 
2.100588282 
2.038293486 
1.946769432 
1.847950045 
1.745385928 
1.617984453 
1.519746469 
2.387262526 
2.340490759 
2.253007594 
2.223135213 
2.136978802 
2.060688532 
1.896787237 
1.869911261 
1.776992979 
1.629113385 
1.529350532 
1.409630486 
1.384399498 
1.383357556 
1.381170875 
1.403048498 
1.377419076 
1.344860786 
1.374367635 
1.380483775 
1.404572779 
1.396599317 
1.326468304 
1.373123206 
1.411371142 
1.39715686 
1.347397674 
1.350428061 
1.359616579 
1.375184317 
1.40309047 
1.376894983 
1.362182432 
1.361638283 
1.361409032 
1.3974423 
1.396018427 
1.344614124 
1.362195456 
1.391321181 
1.408266769 
1.39658749 
1.396412281 
1.388487943 
1.369001993 
1.395371994 
1.387810905 
2.386734519 
2.335221523 
2.234711811 
2.189958666 
2.108195078 
2.073708491 
1.937669644 
1.848022597 
1.768220197 
1.651688362 
1.535398933 
2.372293065 
2.315544156 
2.329481024 
2.197370234 
2.162390311 
2.051359503 
1.947165486 
1.858775357 
1.801256117 
1.604185824 
1.496960722 
2.377898888 
2.319375183 
2.252039319 
2.189576358 
2.095913621 
2.043052975 
1.919745116 
1.824885636 
1.756173071 
1.627592955 
1.517319976 
2.413850421 
2.304554998 
2.275720272 
2.210874509 
2.092693976 
2.106960493 
1.966441542 
1.834843383 
1.743012172 
1.693127524 
1.518411872 
2.358052957 
2.320241757 
2.301918379 
2.155228419 
2.119752937 
2.038785828 
1.980193748 
1.902272302 
1.796501925 
1.676275223 
1.556714961 
2.350916127 
2.314794274 
2.280537184 
2.216963937 
2.141324468 
2.066438676 
1.942379606 
1.854128535 
1.742761454 
1.688225038 
1.538456226 
2.427876465 
2.29424814 
2.255792447 
2.253557561 
2.151575995 
2.107574084 
1.944185618 
1.863106612 
1.773366935 
1.594029723 
1.561040027 
2.374452208 
2.275682606 
2.267473925 
2.228509242 
2.149636904 
2.039457441 
1.954804354 
1.878985747 
1.752268994 
1.65912773 
1.558700473 
2.392352021 
2.353876062 
2.328539298 
2.114687696 
2.106338144 
2.010981446 
1.947052539 
1.847791866 
1.75051684 
1.657469967 
1.500709003 
2.418361848 
2.377419522 
2.331702034 
2.177117824 
2.177780851 
2.06723193 
1.915578226 
1.840333204 
1.743580099 
1.646676645 
1.495463095 
2.383233684 
2.428037267 
2.285905647 
2.206741597 
2.1327207 
2.072536253 
1.994233259 
1.881537543 
1.750182038 
1.609693268 
1.528327863 
2.389243657 
2.290308172 
2.222044005 
2.21791607 
2.17195062 
2.035468403 
1.941941368 
1.835579736 
1.767051435 
1.592643747 
1.534290552 
2.407615709 
2.314842065 
2.352233037 
2.248879298 
2.113044545 
2.044536329 
1.940164096 
1.813112775 
1.730667571 
1.665524875 
1.509013518 
2.346486048 
2.368362537 
2.291361057 
2.183523998 
2.109574128 
2.047940539 
1.933255333 
1.882862225 
1.779517363 
1.656193838 
1.505685423 
2.361713007 
2.316953122 
2.215455476 
2.144700862 
2.12533663 
2.062783395 
1.944143234 
1.847469848 
1.757676624 
1.660015624 
1.502233048 
2.388297411 
2.38582887 
2.2526299 
2.176491323 
2.15027515 
2.09016191 
1.956958967 
1.894055283 
1.726985644 
1.648082053 
1.517076961 
2.397107382 
2.359825023 
2.310407077 
2.242265208 
2.155223216 
2.089796964 
1.96824691 
1.843506197 
1.76746389 
1.656972518 
1.544939817 
2.361339243 
2.37657773 
2.270773101 
2.195869201 
2.109417498 
2.031545269 
1.971478003 
1.879891804 
1.688621843 
1.630762557 
1.547714191 
2.365173163 
2.342234507 
2.275767785 
2.178181869 
2.103691888 
2.00781542 
1.911269946 
1.84930522 
1.698147476 
1.604378832 
1.53411253 
2.424374824 
2.368119786 
2.291722056 
2.217104106 
2.132340876 
2.043022739 
1.970584253 
1.8080423 
1.763986561 
1.687820313 
1.540369221 
2.400386324 
2.38850328 
2.301896552 
2.219862939 
2.151625853 
2.094010941 
1.986747213 
1.883947886 
1.744011815 
1.638334257 
1.488144866 
2.379287312 
2.348173392 
2.299053822 
2.199172829 
2.145130179 
2.086431972 
1.920324616 
1.834866448 
1.768312809 
1.666514386 
1.546050752 
2.34579986 
2.274656587 
2.284129767 
2.219832906 
2.115914954 
2.000802296 
1.944016152 
1.868168034 
1.748142355 
1.661928681 
1.514485491 
2.41595699 
2.365895154 
2.269639865 
2.186690138 
2.140140863 
2.027899427 
1.979654035 
1.869558261 
1.756355376 
1.678648519 
1.551762232 
2.435724505 
2.341252666 
2.272459329 
2.260932698 
2.139160284 
2.017232969 
1.997171428 
1.883064048 
1.715390611 
1.617382706 
1.509764371 
2.4137437 
2.397134914 
2.301928478 
2.209177762 
2.104424412 
2.083478294 
1.942781107 
1.866145287 
1.698790786 
1.635201563 
1.514444652 
2.340156647 
2.311329229 
2.234645393 
2.201185345 
2.125054314 
1.984425856 
1.937083073 
1.846855159 
1.733763682 
1.660144086 
1.567386683 
2.35762234 
2.326065627 
2.261195673 
2.196471414 
2.106520061 
2.092920003 
1.927166059 
1.83629647 
1.784183653 
1.68010793 
1.504323457 
2.416468626 
2.364058397 
2.253590163 
2.216339454 
2.123836685 
2.044182776 
1.95012571 
1.852990866 
1.763281859 
1.650579043 
1.536982142 
2.392233324 
2.348258672 
2.285297522 
2.25597116 
2.155240743 
2.054498896 
1.931207524 
1.881972887 
1.752264561 
1.677359651 
1.576138039 
2.403984566 
2.354900251 
2.306614906 
2.163622479 
2.166200947 
2.073766059 
1.963306173 
1.864875003 
1.743344796 
1.624401367 
1.51199372 
2.384752613 
2.295454539 
2.215877402 
2.225903852 
2.167733799 
2.049237049 
1.916791808 
1.849261998 
1.675864493 
1.656087397 
1.534784177 
2.382622896 
2.299703637 
2.255643007 
2.230665692 
2.178222019 
2.082819952 
1.899894484 
1.857827432 
1.785159418 
1.664415437 
1.540651031 
2.389991491 
2.28121133 
2.249863304 
2.208555167 
2.118200785 
2.113387007 
1.935354003 
1.817388252 
1.752337766 
1.658923047 
1.517604151 
2.404279188 
2.369696738 
2.213998299 
2.205358931 
2.141220186 
2.077655429 
1.986719633 
1.880844549 
1.747317122 
1.663661162 
1.511451444 
2.392510195 
2.316856857 
2.324372966 
2.199794731 
2.157415881 
2.083724216 
2.003287246 
1.922607404 
1.73602716 
1.630880876 
1.527918231 
0.8047168703 
1.252372308 
1.218202277 
1.082460921 
1.0349845 
0.948701397 
0.9409069033 
0.8937272467 
0.8748310339 
0.8425195073 
0.8189696443 
0.8192052054 
0.8067803206 
0.7873303335 
0.7758776401 
0.7909378537 
0.792319467 
0.7703546796 
0.7834581209 
0.8592697307 
0.8496622555 
0.8681983222 
0.8870704151 
0.9179957011 
1.005169416 
1.041423164 
1.070589327 
1.187054577 
1.272748126 
1.269024798 
1.188267999 
1.107782105 
1.043710822 
1.003159868 
0.88533595 
0.8944083293 
0.858270754 
0.8358842639 
0.818018895 
0.7981905443 
1.27496974 
1.168359795 
1.098966386 
1.034271086 
0.9729970897 
0.9445745071 
0.915645528 
0.8445805556 
0.8492353998 
0.8103052393 
0.8085913928 
1.297396485 
1.222623502 
1.079075028 
1.068721977 
0.9836850979 
0.9558538192 
0.8726148061 
0.862899617 
0.8367539716 
0.8178292053 
0.7895354624 
1.236236733 
1.177027049 
1.113744989 
1.01185063 
0.9501691892 
0.9324180687 
0.8698146034 
0.8501435611 
0.7946000322 
0.8059734986 
0.8124054068 
1.258465373 
1.185880527 
1.098446879 
1.015961969 
0.9633862822 
0.9343058201 
0.8939337849 
0.8547833227 
0.8417373589 
0.8176815492 
0.7817709161 
0.7519185274 
0.7726257733 
0.7824586493 
0.81773393 
0.8449775846 
0.8617095034 
0.9535885357 
0.9864431304 
1.004312096 
1.105838955 
1.12074511 
1.270922913 
0.7981433739 
0.8026037146 
0.7826601029 
0.7863565757 
0.7617559145 
1.265404357 
1.152086416 
1.081179174 
1.022116932 
0.9645424324 
0.9186885248 
0.8642023582 
0.8625251859 
0.8105426171 
0.7971344262 
0.7875494031 
1.255205126 
1.152709574 
1.088913079 
1.01555843 
0.9624922397 
0.9102418006 
0.889122655 
0.8496667316 
0.8043845429 
0.7796233162 
0.7804198608 
1.305777199 
1.186127558 
1.07697384 
1.004614435 
0.9822909232 
0.9408876788 
0.8837634941 
0.8679366015 
0.8108912089 
0.8193137328 
0.7930069198 
1.269625614 
1.15528003 
1.089900709 
0.9958512159 
0.9644548701 
0.9204613882 
0.8925203375 
0.8661229065 
0.8054530611 
0.7943894661 
0.7880552583 
1.233050816 
1.167000602 
1.071708355 
1.027894847 
0.98242059 
0.9370585273 
0.8934510025 
0.8314772053 
0.8046339435 
0.7828124493 
0.7899990464 
0.7852203159 
0.7758332051 
0.7523642458 
0.748495891 
0.8082437198 
0.7931089719 
0.7756005666 
0.7765052182 
0.7778250709 
0.7846382135 
0.7910786411 
0.7631177403 
0.7748815309 
0.7805218929 
0.7946942761 
0.7478569458 
0.7808818928 
0.7625820159 
0.7540235131 
0.8106839527 
0.7602320398 
0.7723890256 
0.7809904442 
0.752621329 
0.7704840611 
0.7548112575 
0.7775610531 
0.7650535729 
0.7870260718 
0.7954529894 
0.7771037188 
0.7804074678 
0.7827583199 
0.7926136397 
0.8328420577 
0.7750072481 
1.263726039 
1.190747395 
1.075390071 
1.041157176 
0.9518140681 
0.9276910189 
0.8673231491 
0.857741276 
0.8498266563 
0.8084735414 
0.7981408677 
1.249816937 
1.188205791 
1.071693818 
1.055758634 
0.9633001871 
0.9215057366 
0.9410253275 
0.8489036113 
0.8353893622 
0.8243277434 
0.7980636167 
1.237920024 
1.173286039 
1.077783115 
1.004936592 
0.9823227291 
0.9373267246 
0.9140270666 
0.8560836394 
0.8368944482 
0.8176049078 
0.8224333934 
1.283248464 
1.196664173 
1.088807807 
1.04447836 
0.9776414243 
0.9322211354 
0.8838311817 
0.9094890717 
0.8562880177 
0.8218594661 
0.7802352732 
1.259739315 
1.168363606 
1.061533377 
1.038317447 
0.9872716757 
0.9373232339 
0.8850047907 
0.8389848002 
0.8341230671 
0.7870553888 
0.7810740468 
1.261404219 
1.154292724 
1.088810639 
1.002256088 
0.9993841608 
0.9465444159 
0.8957960176 
0.8546310457 
0.827227923 
0.8361611145 
0.8225975368 
1.241622 
1.142037658 
1.093495994 
1.047764665 
0.9833748682 
0.9400967998 
0.9072789991 
0.8470985911 
0.8214029383 
0.7981390047 
0.8023979337 
1.246554387 
1.158327391 
1.093289942 
1.046684309 
0.9698876527 
0.9302579203 
0.891094717 
0.8822579366 
0.8276760888 
0.8187206774 
0.7952450235 
1.269130269 
1.145279299 
1.100829926 
1.011727592 
0.9587384886 
0.8991700144 
0.885054015 
0.8751256562 
0.8301532622 
0.8362633606 
0.7757824404 
1.29133713 
1.186845903 
1.108241392 
1.042026426 
0.9914892496 
0.9136491809 
0.9051995431 
0.8972132016 
0.7938179377 
0.7880382053 
0.7808841205 
1.26078665 
1.16654874 
1.116899291 
0.9881483202 
0.9722075896 
0.9069431486 
0.8405928702 
0.8547001129 
0.7905026093 
0.8082738868 
0.7972358379 
1.2696048 
1.155821569 
1.104406617 
1.033594598 
0.9958417683 
0.9257228901 
0.8739547161 
0.8647500631 
0.8514766845 
0.8216339602 
0.7894432748 
1.256335157 
1.164478111 
1.088474012 
1.044762677 
0.9691764734 
0.9229362222 
0.8753911724 
0.8617030252 
0.8380993042 
0.8140162772 
0.7923729557 
1.323554757 
1.179584502 
1.107123836 
1.041746485 
0.96563898 
0.881855145 
0.8390748702 
0.858311207 
0.8051965316 
0.8167458935 
0.8080685205 
1.274738792 
1.165381781 
1.117616171 
1.036998679 
0.9642000343 
0.9374098911 
0.8951606605 
0.8481063952 
0.8137752511 
0.8049248237 
0.7831992813 
1.245342376 
1.175178197 
1.062366982 
1.039326988 
0.9572367206 
0.934701171 
0.8996593684 
0.8580860902 
0.8422440712 
0.8282434518 
0.8285593684 
1.237724501 
1.19489975 
1.101857937 
1.028848406 
0.9668119091 
0.9236300476 
0.8783747496 
0.8401419394 
0.7965254896 
0.8050773732 
0.8126459729 
1.250972304 
1.158898116 
1.073289441 
1.013810552 
0.9674335225 
0.9083731495 
0.8770281274 
0.8589038707 
0.8329424668 
0.8033687051 
0.8056663626 
1.263215669 
1.169893927 
1.118894351 
1.008086766 
0.9707666577 
0.908287941 
0.8904680883 
0.8245824676 
0.8042692393 
0.8287157112 
0.8095418075 
1.222331222 
1.19456301 
1.134555479 
1.023817604 
1.016957522 
0.9432416125 
0.8807112689 
0.8451494153 
0.8017715391 
0.836364716 
0.7726727046 
1.263762277 
1.150029495 
1.068453494 
1.027915281 
0.9691025654 
0.9350015132 
0.860036217 
0.8397445827 
0.8346305944 
0.8276158944 
0.8041752906 
1.267910241 
1.195505065 
1.11877091 
1.00250334 
0.9696291571 
0.936889721 
0.8800173046 
0.8627841028 
0.8337222921 
0.8077891903 
0.7981934376 
1.261236462 
1.177775189 
1.077364112 
1.056933949 
0.9802862623 
0.9003373569 
0.8889756281 
0.8511974474 
0.8044192767 
0.7890229118 
0.8092541956 
1.278219191 
1.167572415 
1.089101864 
1.038177475 
0.9683349138 
0.9237797995 
0.8925434245 
0.8339671217 
0.8318884115 
0.797510729 
0.7901431355 
1.259845945 
1.171014757 
1.078617437 
1.038862581 
0.992146988 
0.9103601443 
0.8511935469 
0.8444564043 
0.8277467736 
0.8366427483 
0.8106144534 
1.247698118 
1.165507345 
1.076528214 
1.030208873 
0.9874584623 
0.9312588904 
0.873151852 
0.8430507489 
0.8517821157 
0.808778761 
0.7764029729 
1.218471275 
1.162589882 
1.078368371 
1.038665099 
0.9649574611 
0.9228757594 
0.9089614854 
0.8406960698 
0.8470332017 
0.7893720158 
0.7862786364 
1.255220236 
1.173903497 
1.103034395 
1.024792766 
0.9478756073 
0.9146880215 
0.8917039893 
0.8649231606 
0.8602687936 
0.8104244329 
0.8037534983 
1.263437124 
1.156388031 
1.122893408 
1.033108236 
0.9762158937 
0.9401195954 
0.8607179601 
0.8625611663 
0.8368179373 
0.7690536021 
0.8074865056 
1.24073648 
1.190062767 
1.07329395 
1.024355229 
0.9764877541 
0.9549198935 
0.9022391455 
0.8292384026 
0.8246909295 
0.7961670646 
0.820412834 
1.265682722 
1.150389836 
1.071548084 
1.032207928 
0.9951441247 
0.9144667978 
0.869401388 
0.84040558 
0.8321825075 
0.790198228 
0.8015871943 
1.236634281 
1.151387327 
1.072115809 
0.9906904115 
0.9652203128 
0.8963905843 
0.9015238761 
0.8503229591 
0.8409743862 
0.7813476211 
0.7914472288 
1.240097496 
1.182468612 
1.082261709 
1.014378412 
0.941304069 
0.9228716505 
0.897064971 
0.8426258091 
0.8204261867 
0.7869960702 
0.8031032556 
1.24566785 
1.143282525 
1.06685619 
1.001610438 
0.9456870008 
0.9194461821 
0.9022202758 
0.8341472337 
0.8207203535 
0.8051962187 
0.7965398277 
1.265035876 
1.15577467 
1.061894787 
1.041725438 
0.978950047 
0.9516178826 
0.8983903216 
0.8600229252 
0.8377886355 
0.8149406328 
0.7894953325 
1.266353096 
1.175985019 
1.091342044 
1.014934671 
0.9780882647 
0.927551622 
0.914795196 
0.8630266934 
0.8480197293 
0.8185775744 
0.7841830556 
SCALARS KDE_ERROR_TAG double 1
LOOKUP_TABLE default
0.01288792941 
0.01277786645 
0.01294980018 
0.01278822571 
0.01280346528 
0.01280433352 
0.01284705298 
0.01286469867 
0.01283771932 
0.0127542703 
0.01284501794 
0.01269624635 
0.01285728637 
0.01277205452 
0.01290997568 
0.01285557596 
0.01287006584 
0.01281271412 
0.01271633495 
0.01299390007 
0.01281820105 
0.01281722917 
0.01290425119 
0.01289672453 
0.01276715338 
0.0127735185 
0.01271432481 
0.01259840708 
0.01271445078 
0.0127185732 
0.01268947148 
0.01272689183 
0.01287260794 
0.01280318279 
0.01282498428 
0.01271877663 
0.01265706614 
0.01269848865 
0.01263137927 
0.01271672689 
0.01267855423 
0.01270310927 
0.01275482337 
0.0128034793 
0.01278728955 
0.01280385121 
0.0127578879 
0.01287312093 
0.01277977143 
0.01637630959 
0.01282389487 
0.01285933614 
0.01304308179 
0.01310985041 
0.01349560259 
0.01356987516 
0.01386587017 
0.01436258138 
0.01472928416 
0.01522300777 
0.01588275746 
0.01648670777 
0.01625843612 
0.01659777401 
0.01657499968 
0.01630131861 
0.01640274847 
0.01558994825 
0.01507744905 
0.01454706163 
0.0143781346 
0.01399760213 
0.01381871144 
0.0134796564 
0.01327423241 
0.01295951017 
0.01300983641 
0.01294641537 
0.01285079365 
0.0130051108 
0.0129500387 
0.01327149013 
0.01344022095 
0.01364184732 
0.01386379484 
0.01428516774 
0.01458607422 
0.01519970407 
0.01597324644 
0.01283274503 
0.01296001273 
0.01297331504 
0.01320592464 
0.01341160004 
0.0135310754 
0.01395997464 
0.01424416532 
0.01474270623 
0.01512376662 
0.01558235647 
0.01268758151 
0.0129594156 
0.01300698612 
0.01316936942 
0.01326768478 
0.01370968796 
0.01400839086 
0.01435719954 
0.01464979963 
0.01518484431 
0.01560554857 
0.01287621891 
0.01300215833 
0.0130553231 
0.0131956402 
0.01337792777 
0.01359551039 
0.01397222884 
0.01432775304 
0.01457778794 
0.01511922388 
0.01564521368 
0.01285142036 
0.01292408337 
0.01306856626 
0.01311477307 
0.01345306334 
0.01385389934 
0.01401028886 
0.01433833877 
0.01473961394 
0.01517670355 
0.01578181363 
0.0165818321 
0.01553655013 
0.01522739508 
0.01478956763 
0.01431479544 
0.01419150517 
0.01359578406 
0.01338898952 
0.0133189445 
0.01301351074 
0.01295832114 
0.01306754102 
0.01648598624 
0.01653286334 
0.01647395174 
0.01669254505 
0.01650314514 
0.01281359355 
0.01290836833 
0.01307231389 
0.01317389175 
0.01346569102 
0.01367346972 
0.01386633082 
0.01421411914 
0.01484195831 
0.01520660099 
0.01571515523 
0.01287621571 
0.01300734928 
0.0131970709 
0.0131976475 
0.01353156713 
0.01339835436 
0.01389059005 
0.0142529922 
0.01476759096 
0.0151130382 
0.0156189426 
0.01291375114 
0.01279270192 
0.01314709105 
0.01324786707 
0.01347096919 
0.01361349062 
0.01398749737 
0.01426576162 
0.01469421593 
0.0152455038 
0.01568705869 
0.01279087745 
0.01287773388 
0.01323222912 
0.01322188166 
0.01349465154 
0.01370868793 
0.01399397425 
0.01446451728 
0.01473325841 
0.01534398302 
0.01568913355 
0.01288024234 
0.01292645705 
0.01312891982 
0.01316554934 
0.01338435773 
0.01363652733 
0.01413114359 
0.01434775008 
0.01462612049 
0.0152199332 
0.01579141804 
0.01656976653 
0.0164412577 
0.0164954679 
0.01669839459 
0.01636328218 
0.0166862839 
0.0166537305 
0.01649869314 
0.01656356911 
0.01640328868 
0.0165303062 
0.01668368162 
0.01673471802 
0.01618859398 
0.01649651698 
0.01662626735 
0.01665747728 
0.01660431201 
0.01643288129 
0.016400874 
0.0165170003 
0.01650452439 
0.01653016117 
0.01641178555 
0.01631491681 
0.01651012077 
0.01672220036 
0.01653067516 
0.01641854041 
0.01629957455 
0.0163987783 
0.0165151151 
0.01646054764 
0.01650374177 
0.01641939899 
0.01659169899 
0.01293901217 
0.01289036497 
0.01327054629 
0.01331474373 
0.01350450239 
0.01363808329 