# vtk DataFile Version 3.0
MOAB 4.9.0
ASCII
DATASET UNSTRUCTURED_GRID
POINTS 2814 double
0.445610315 0.246495873 -60.9600182
0.445610315 1.44649589 -60.9600182
0.445610315 0.246495873 60.9599991
0.445610315 1.44649589 60.9599991
0.0213462412 0.422231823 -60.9600182
-0.154389694 0.846495867 -60.9600182
0.0213462412 1.27075994 -60.9600182
0.869874358 1.27075994 -60.9600182
1.04561031 0.846495867 -60.9600182
0.869874358 0.422231823 -60.9600182
0.445610315 0.246495873 -60.4742813
0.445610315 0.246495873 -59.9885445
0.445610315 0.246495873 -59.5028076
0.445610315 0.246495873 -59.0170708
0.445610315 0.246495873 -58.5313339
0.445610315 0.246495873 -58.0455971
0.445610315 0.246495873 -57.5598602
0.445610315 0.246495873 -57.0741234
0.445610315 0.246495873 -56.5883865
0.445610315 0.246495873 -56.1026497
0.445610315 0.246495873 -55.6169128
0.445610315 0.246495873 -55.131176
0.445610315 0.246495873 -54.6454391
0.445610315 0.246495873 -54.1596985
0.445610315 0.246495873 -53.6739616
0.445610315 0.246495873 -53.1882248
0.445610315 0.246495873 -52.7024879
0.445610315 0.246495873 -52.2167511
0.445610315 0.246495873 -51.7310143
0.445610315 0.246495873 -51.2452774
0.445610315 0.246495873 -50.7595406
0.445610315 0.246495873 -50.2738037
0.445610315 0.246495873 -49.7880669
0.445610315 0.246495873 -49.30233
0.445610315 0.246495873 -48.8165932
0.445610315 0.246495873 -48.3308563
0.445610315 0.246495873 -47.8451157
0.445610315 0.246495873 -47.3593788
0.445610315 0.246495873 -46.873642
0.445610315 0.246495873 -46.3879051
0.445610315 0.246495873 -45.9021683
0.445610315 0.246495873 -45.4164314
0.445610315 0.246495873 -44.9306946
0.445610315 0.246495873 -44.4449577
0.445610315 0.246495873 -43.9592209
0.445610315 0.246495873 -43.473484
0.445610315 0.246495873 -42.9877472
0.445610315 0.246495873 -42.5020103
0.445610315 0.246495873 -42.0162735
0.445610315 0.246495873 -41.5305328
0.445610315 0.246495873 -41.044796
0.445610315 0.246495873 -40.5590591
0.445610315 0.246495873 -40.0733223
0.445610315 0.246495873 -39.5875854
0.445610315 0.246495873 -39.1018486
0.445610315 0.246495873 -38.6161118
0.445610315 0.246495873 -38.1303749
0.445610315 0.246495873 -37.6446381
0.445610315 0.246495873 -37.1589012
0.445610315 0.246495873 -36.6731644
0.445610315 0.246495873 -36.1874275
0.445610315 0.246495873 -35.7016907
0.445610315 0.246495873 -35.2159538
0.445610315 0.246495873 -34.7302132
0.445610315 0.246495873 -34.2444763
0.445610315 0.246495873 -33.7587395
0.445610315 0.246495873 -33.2730026
0.445610315 0.246495873 -32.7872658
0.445610315 0.246495873 -32.3015289
0.445610315 0.246495873 -31.8157921
0.445610315 0.246495873 -31.3300552
0.445610315 0.246495873 -30.8443184
0.445610315 0.246495873 -30.3585815
0.445610315 0.246495873 -29.8728428
0.445610315 0.246495873 -29.3871059
0.445610315 0.246495873 -28.9013691
0.445610315 0.246495873 -28.4156322
0.445610315 0.246495873 -27.9298954
0.445610315 0.246495873 -27.4441586
0.445610315 0.246495873 -26.9584198
0.445610315 0.246495873 -26.472683
0.445610315 0.246495873 -25.9869461
0.445610315 0.246495873 -25.5012093
0.445610315 0.246495873 -25.0154724
0.445610315 0.246495873 -24.5297356
0.445610315 0.246495873 -24.0439987
0.445610315 0.246495873 -23.55826
0.445610315 0.246495873 -23.0725231
0.445610315 0.246495873 -22.5867863
0.445610315 0.246495873 -22.1010494
0.445610315 0.246495873 -21.6153126
0.445610315 0.246495873 -21.1295757
0.445610315 0.246495873 -20.6438389
0.445610315 0.246495873 -20.1581001
0.445610315 0.246495873 -19.6723633
0.445610315 0.246495873 -19.1866264
0.445610315 0.246495873 -18.7008896
0.445610315 0.246495873 -18.2151527
0.445610315 0.246495873 -17.7294159
0.445610315 0.246495873 -17.2436771
0.445610315 0.246495873 -16.7579403
0.445610315 0.246495873 -16.2722034
0.445610315 0.246495873 -15.7864666
0.445610315 0.246495873 -15.3007298
0.445610315 0.246495873 -14.814992
0.445610315 0.246495873 -14.3292551
0.445610315 0.246495873 -13.8435183
0.445610315 0.246495873 -13.3577814
0.445610315 0.246495873 -12.8720436
0.445610315 0.246495873 -12.3863068
0.445610315 0.246495873 -11.9005699
0.445610315 0.246495873 -11.4148321
0.445610315 0.246495873 -10.9290953
0.445610315 0.246495873 -10.4433584
0.445610315 0.246495873 -9.95762062
0.445610315 0.246495873 -9.47188377
0.445610315 0.246495873 -8.98614693
0.445610315 0.246495873 -8.50041008
0.445610315 0.246495873 -8.01467228
0.445610315 0.246495873 -7.52893543
0.445610315 0.246495873 -7.04319811
0.445610315 0.246495873 -6.55746126
0.445610315 0.246495873 -6.07172394
0.445610315 0.246495873 -5.58598709
0.445610315 0.246495873 -5.10024977
0.445610315 0.246495873 -4.61451244
0.445610315 0.246495873 -4.1287756
0.445610315 0.246495873 -3.64303827
0.445610315 0.246495873 -3.15730119
0.445610315 0.246495873 -2.6715641
0.445610315 0.246495873 -2.18582702
0.445610315 0.246495873 -1.70008981
0.445610315 0.246495873 -1.21435273
0.445610315 0.246495873 -0.728615582
0.445610315 0.246495873 -0.242878437
0.445610315 0.246495873 0.242858693
0.445610315 0.246495873 0.728595853
0.445610315 0.246495873 1.21433294
0.445610315 0.246495873 1.70007014
0.445610315 0.246495873 2.18580723
0.445610315 0.246495873 2.67154431
0.445610315 0.246495873 3.1572814
0.445610315 0.246495873 3.64301872
0.445610315 0.246495873 4.12875557
0.445610315 0.246495873 4.61449289
0.445610315 0.246495873 5.10023022
0.445610315 0.246495873 5.58596706
0.445610315 0.246495873 6.07170439
0.445610315 0.246495873 6.55744123
0.445610315 0.246495873 7.04317856
0.445610315 0.246495873 7.52891588
0.445610315 0.246495873 8.01465321
0.445610315 0.246495873 8.50039005
0.445610315 0.246495873 8.9861269
0.445610315 0.246495873 9.47186375
0.445610315 0.246495873 9.95760155
0.445610315 0.246495873 10.4433384
0.445610315 0.246495873 10.9290752
0.445610315 0.246495873 11.414813
0.445610315 0.246495873 11.9005499
0.445610315 0.246495873 12.3862867
0.445610315 0.246495873 12.8720245
0.445610315 0.246495873 13.3577614
0.445610315 0.246495873 13.8434982
0.445610315 0.246495873 14.3292351
0.445610315 0.246495873 14.8149729
0.445610315 0.246495873 15.3007097
0.445610315 0.246495873 15.7864466
0.445610315 0.246495873 16.2721844
0.445610315 0.246495873 16.7579212
0.445610315 0.246495873 17.2436581
0.445610315 0.246495873 17.7293949
0.445610315 0.246495873 18.2151318
0.445610315 0.246495873 18.7008705
0.445610315 0.246495873 19.1866074
0.445610315 0.246495873 19.6723442
0.445610315 0.246495873 20.1580811
0.445610315 0.246495873 20.6438179
0.445610315 0.246495873 21.1295547
0.445610315 0.246495873 21.6152916
0.445610315 0.246495873 22.1010303
0.445610315 0.246495873 22.5867672
0.445610315 0.246495873 23.072504
0.445610315 0.246495873 23.5582409
0.445610315 0.246495873 24.0439777
0.445610315 0.246495873 24.5297146
0.445610315 0.246495873 25.0154533
0.445610315 0.246495873 25.5011902
0.445610315 0.246495873 25.986927
0.445610315 0.246495873 26.4726639
0.445610315 0.246495873 26.9584007
0.445610315 0.246495873 27.4441376
0.445610315 0.246495873 27.9298744
0.445610315 0.246495873 28.4156132
0.445610315 0.246495873 28.90135
0.445610315 0.246495873 29.3870869
0.445610315 0.246495873 29.8728237
0.445610315 0.246495873 30.3585606
0.445610315 0.246495873 30.8442974
0.445610315 0.246495873 31.3300343
0.445610315 0.246495873 31.815773
0.445610315 0.246495873 32.3015099
0.445610315 0.246495873 32.7872467
0.445610315 0.246495873 33.2729836
0.445610315 0.246495873 33.7587204
0.445610315 0.246495873 34.2444572
0.445610315 0.246495873 34.7301941
0.445610315 0.246495873 35.2159309
0.445610315 0.246495873 35.7016678
0.445610315 0.246495873 36.1874046
0.445610315 0.246495873 36.6731453
0.445610315 0.246495873 37.1588821
0.445610315 0.246495873 37.644619
0.445610315 0.246495873 38.1303558
0.445610315 0.246495873 38.6160927
0.445610315 0.246495873 39.1018295
0.445610315 0.246495873 39.5875664
0.445610315 0.246495873 40.0733032
0.445610315 0.246495873 40.5590401
0.445610315 0.246495873 41.0447769
0.445610315 0.246495873 41.5305138
0.445610315 0.246495873 42.0162506
0.445610315 0.246495873 42.5019875
0.445610315 0.246495873 42.9877281
0.445610315 0.246495873 43.473465
0.445610315 0.246495873 43.9592018
0.445610315 0.246495873 44.4449387
0.445610315 0.246495873 44.9306755
0.445610315 0.246495873 45.4164124
0.445610315 0.246495873 45.9021492
0.445610315 0.246495873 46.387886
0.445610315 0.246495873 46.8736229
0.445610315 0.246495873 47.3593597
0.445610315 0.246495873 47.8450966
0.445610315 0.246495873 48.3308334
0.445610315 0.246495873 48.8165703
0.445610315 0.246495873 49.3023109
0.445610315 0.246495873 49.7880478
0.445610315 0.246495873 50.2737846
0.445610315 0.246495873 50.7595215
0.445610315 0.246495873 51.2452583
0.445610315 0.246495873 51.7309952
0.445610315 0.246495873 52.216732
0.445610315 0.246495873 52.7024689
0.445610315 0.246495873 53.1882057
0.445610315 0.246495873 53.6739426
0.445610315 0.246495873 54.1596794
0.445610315 0.246495873 54.6454163
0.445610315 0.246495873 55.1311531
0.445610315 0.246495873 55.61689
0.445610315 0.246495873 56.1026306
0.445610315 0.246495873 56.5883675
0.445610315 0.246495873 57.0741043
0.445610315 0.246495873 57.5598412
0.445610315 0.246495873 58.045578
0.445610315 0.246495873 58.5313148
0.445610315 0.246495873 59.0170517
0.445610315 0.246495873 59.5027885
0.445610315 0.246495873 59.9885254
0.445610315 0.246495873 60.4742622
0.0213462412 0.422231823 60.9599991
-0.154389694 0.846495867 60.9599991
0.0213462412 1.27075994 60.9599991
0.445610315 1.44649589 60.4742622
0.445610315 1.44649589 59.9885254
0.445610315 1.44649589 59.5027885
0.445610315 1.44649589 59.0170517
0.445610315 1.44649589 58.5313148
0.445610315 1.44649589 58.045578
0.445610315 1.44649589 57.5598412
0.445610315 1.44649589 57.0741043
0.445610315 1.44649589 56.5883675
0.445610315 1.44649589 56.1026306
0.445610315 1.44649589 55.61689
0.445610315 1.44649589 55.1311531
0.445610315 1.44649589 54.6454163
0.445610315 1.44649589 54.1596794
0.445610315 1.44649589 53.6739426
0.445610315 1.44649589 53.1882057
0.445610315 1.44649589 52.7024689
[...]
CELL_DATA 9483
SCALARS TALLY_TAG double 1
LOOKUP_TABLE default
0.000390681825 
0.0004287160089 
0.0005665447877 
0.0007059367538 
0.0005570623063 
0.0007730622842 
0.0002365256459 
0.0003632989123 
0.0003094184534 
0.0002464973046 
0.0002419152776 
0.0003910427674 
0.0003500906857 
0.0005133171963 
0.0004295556409 
0.0002593039493 
0.00042379342 
0.0004961958786 
0.0003876677349 
0.0002320251883 
0.0002794569035 
0.0001370702668 
0.0002676438884 
0.0004288147368 
0.0005181570888 
0.0003615966526 
0.0003792383244 
0.0004937855404 
0.0006218696327 
0.0004267487792 
0.0005822236595 
0.0005446319113 
0.000505786059 
0.0004078522786 
9.199768488e-05 
0.0003556928 
0.0005668056323 
0.0007996429313 
0.000620514927 
0.0003422374348 
0.0005321885587 
0.0007342618023 
0.0005012963248 
0.0005496037706 
0.0006890450321 
0.0003924686456 
0.0005318367228 
0.0005182084002 
0.0004167369279 
0.0004260991305 
0.0006314537992 
0.000351807047 
0.0002646927009 
0.0002032286557 
0.0003570005931 
0.000267695161 
0.0002515968081 
0.0002089762986 
0.0004617479111 
0.0004551750448 
0.0005245476193 
0.0002457922398 
0.0002821139659 
0.0003823553645 
0.0005932243741 
0.0001937657569 
0.0004956453212 
0.0004662813213 
0.0004621547674 
0.0003068475436 
0.0006164482556 
0.0005610154339 
0.0002450830655 
0.0001857217491 
0.0001611299078 
0.0001488512891 
0.0001509294184 
0.0003518366885 
0.0003951650184 
0.0002251245035 
0.0003345650219 
0.0003475575497 
0.0001645139951 
0.0002021778351 
0.0002718351642 
0.0001591395533 
0.0004547968487 
0.000486568053 
0.0006780960382 
0.0003228577253 
0.000403073937 
0.0004444952502 
0.0004210788079 
0.0004918376361 
0.0006193634267 
0.0003371775558 
0.0002826180481 
0.0003641010831 
0.0003872744399 
0.0004071872835 
0.0003869857484 
0.0004093772327 
0.0003414962792 
0.0003790619325 
0.000216140805 
0.0001564159247 
0.0003347147143 
0.0002926198564 
0.0003953418114 
0.0004096372572 
9.393413188e-05 
0.0002441831582 
0.0003334886915 
0.0002865146855 
0.0002403907114 
0.0003226521658 
0.0005137867601 
0.0002654553923 
0.0003469394568 
0.0002908940068 
0.0002448478208 
0.0003797567154 
0.0001589759226 
0.0005214373867 
0.0004386755738 
0.0005815460115 
0.0004775297367 
0.0001498552424 
0.0004193035226 
0.000177896014 
0.0002869522821 
0.0003125646652 
0.000409600483 
0.0004158481927 
0.0004517379351 
0.000424370361 
0.000515601597 
0.0005357847649 
0.0006726509395 
0.0006664992177 
0.0007646831128 
0.0002646707188 
0.0004606793532 
0.0005688526904 
0.000239689032 
0.000854846232 
0.0002849009052 
0.0004130322232 
0.0006898620851 
0.0005674721274 
0.0003346881849 
0.0004050511074 
0.0006583425712 
0.001069240415 
0.0005424470634 
0.0002915935612 
0.0004199216863 
0.0002750057729 
0.0006022194987 
0.0004088203718 
0.0002324669814 
0.0002762644169 
0.0001900045528 
0.0002929865755 
0.0004095505728 
0.0003017382864 
0.0001702337128 
0.000114089365 
0.0002663754899 
0.0003811310157 
0.0003614178819 
0.0003403360687 
0.0003606263827 
0.00064651854 
0.0008002144851 
0.0005814459803 
0.0004386929331 
0.000593552009 
0.0004128936046 
0.000476070284 
0.0004347518718 
0.0003905418057 
0.0004403666095 
0.0004464886742 
0.0005391598214 
0.0002501158973 
0.0003989800258 
0.0002842992703 
0.0004857454374 
0.0001979824911 
0.0002021245855 
0.000335500918 
0.000314533877 
0.0002507500026 
0.0002202543194 
0.00019834382 
0.0004586084528 
0.0003843737907 
0.0004338334161 
0.0002362672175 
0.0005752152358 
0.0002270584826 
0.0005266036378 
0.0004166727825 
0.0002487709426 
0.0005769895321 
0.0005958933279 
0.0003065533713 
0.0004670727349 
0.0003916824608 
0.0005868759843 
0.0003306143025 
0.0001101294594 
0.0003205099318 
0.0002846587328 
0.0003231260371 
0.000203086707 
0.0003204581902 
0.0004340485492 
0.0008288823501 
0.0001871942068 
0.0002162644872 
0.0002442790851 
0.0002799779231 
0.0004895197369 
0.0003473315972 
0.0005284724807 
0.0004137688954 
0.0005017697346 
0.0003980955667 
0.0003410805463 
0.0002509447033 
0.0005636147694 
0.000287582206 
0.0004684006532 
0.0002697186702 
0.0002406055968 
0.0005293357486 
0.0006585744994 
0.0002021231949 
0.0002999640127 
0.0004742466724 
0.000374929877 
0.0005568324351 
0.0003617162095 
0.000158442033 
0.0001827198778 
0.0002114484953 
0.00037628855 
0.0004285079731 
0.0002461946806 
0.0002561069849 
0.0002845062419 
0.0003664385595 
0.0005564070817 
0.0005990585176 
0.0008624842901 
0.000427653058 
0.0005313317161 
0.0003636227043 
0.0001598339579 
0.0004848175223 
0.0005201439758 
0.0003627382403 
0.0003250727392 
0.0003846216603 
0.0005543399511 
0.0007880004729 
0.0004634641937 
0.0005822701529 
0.0006757641541 
0.0002501631656 
0.000301984274 
0.0005760977735 
0.00029641386 
0.0002351863776 
0.0003605042778 
0.0004025344272 
0.0003762544889 
0.0001764523815 
0.0003924137443 
0.0003534822548 
0.0004595776953 
0.0004975019114 
0.0005744596692 
0.0003976054851 
0.0002153077057 
0.0003279869482 
0.0004695598052 
0.0005628779143 
0.0004347544217 
0.0005980917024 
0.0008267179286 
0.0005524907079 
0.0002578418204 
0.0002145184576 
0.0007596900109 
0.0005491308566 
0.0003651290169 
0.0005345244241 
0.0004966825275 
0.0002487126645 
0.0002417429195 
0.0004509127051 
0.0002163102671 
0.0004403410755 
0.0002550167582 
0.00013960002 
0.0003780087478 
0.0005269422342 
0.0005532867524 
0.000207271781 
0.0002347800375 
0.0003251539076 
0.000137674005 
0.000653400185 
0.0003243152185 
0.0004643057409 
0.0005183448786 
0.0004137775683 
0.0004202496406 
0.0002134903586 
0.000207850122 
0.0002676212096 
0.0005338309523 
0.0004270201167 
0.0005357803803 
0.0003316478378 
0.0006702703461 
0.0004561912843 
0.0003571453469 
0.000351258829 
0.0003649554528 
0.0001502589913 
0.000361356825 
0.0004103272669 
0.0002902761423 
0.0004051278863 
0.0003455072299 
0.0002096891139 
0.0003512604708 
0.0001799757428 
0.000217538691 
0.0002837728288 
0.0002571739949 
0.0002198434619 
0.0004136091332 
0.0002970156425 
0.0002798851641 
0.0003015355273 
0.000155017472 
0.0002929477057 
0.0003372643271 
0.0001944815211 
0.000172494995 
0.0003292968509 
0.0003645359975 
0.0002542780667 
0.0002688398836 
0.0003462071635 
0.000374322306 
0.0003677674249 
0.0004815651807 
0.0006386966556 
0.000715469975 
0.0009076670984 
0.000410107981 
0.0002188027121 
0.0002253492868 
0.0005504311448 
0.0002192926003 
0.0002599025357 
0.0001752088354 
0.0002707732665 
0.0002235957658 
0.0002126668373 
0.0002379825259 
0.0003150472085 
0.0001460914181 
0.0002771458017 
0.0003487977899 
0.0002458389208 
0.0005266915796 
0.0004137116276 
0.0001324303672 
0.0003895960951 
0.000491866946 
0.0004799326032 
0.0004476644956 
0.0001987162892 
0.0001282004618 
0.0005965772386 
0.0007363594746 
0.0005224139762 
0.0006890653582 
0.0003235686241 
0.0004870385089 
0.0001984231024 
0.0003137609421 
0.0002501425805 
0.0003422245265 
0.0002848830154 
0.0003009028327 
0.0002961369234 
0.00029232511 
0.0002838699956 
0.0001238531447 
0.0001190312112 
0.0004697547639 
0.000608435762 
0.0003092936433 
0.0001482299897 
0.0002329748127 
0.0003179414874 
0.00034106342 
0.0003858819228 
0.0003030676756 
0.0008670138831 
0.0003580150272 
0.0002469132717 
0.0008176721076 
0.0007697393739 
0.0002208552767 
0.0002706261491 
0.0003811873434 
0.0002258306953 
0.0003195278635 
0.0002908631432 
0.0001813709359 
0.0002728650229 
0.0003480708238 
0.0003734596905 
0.0001935220174 
0.0004539020556 
0.0004704237302 
0.0004065484972 
0.0004754606455 
0.0004546082086 
0.0005848715589 
0.0003166732145 
0.0001300983566 
0.0003026146783 
0.0002236012195 
0.000284076799 
0.0004423282457 
0.0003008865326 
0.0001698980699 
0.0005356828634 
0.0006732403802 
0.0006821776973 
0.0005321541187 
0.0004548962361 
0.0006605657863 
0.0002870557271 
0.0003107368354 
0.00014980169 
0.0001218293954 
0.0003645545732 
0.0004775550747 
0.0002258010638 
0.0001977369736 
0.0006719722694 
0.0007832225734 
0.0005480330399 
0.0004072115253 
0.0006894130406 
0.0007367556861 
0.0004972556808 
0.0007299436461 
0.000465192864 
0.0003380593163 
0.0004766939526 
0.0003068890922 
0.000198940811 
0.0003086503203 
0.0007029774215 
0.0002828364485 
0.0002317072597 
0.0007568631919 
0.00056303573 
0.0006321198849 
0.0003071621711 
0.0002991104187 
0.0008912966841 
0.0004874262979 
0.0002690230968 
0.0007018629235 
0.0006570939715 
0.0003011296933 
0.0003158157328 
0.0004682823945 
0.000419689474 
0.0002338200533 
0.0006826696719 
0.0004631851014 
0.0005210002672 
0.0006669355882 
0.0008116003365 
0.0007923730354 
0.0005451772647 
0.0004939129982 
0.0003501059866 
0.0002097170887 
0.0001770172637 
0.0004111224053 
0.0002915624139 
0.0004792621441 
0.0003412837138 
0.0004063935728 
0.0002674269001 
0.0004359147422 
0.0002151906106 
0.0005236353868 
0.0004172236657 
0.0002015278085 
0.0003249013706 
0.0002621221813 
0.0002898731374 
0.0002923694757 
0.0002027657093 
0.0004045941532 
0.0001755866322 
0.0004155234888 
0.0004166663235 
0.0003643937004 
0.0003799482524 
0.0004012640036 
0.0001916786153 
0.0004423413303 
0.0002355102295 
0.0003136665554 
0.0003625513789 
0.0007651139888 
0.0003429742254 
0.0005626764495 
0.000473993749 
0.0003473745107 
0.0001827099384 
0.0003443335242 
0.0003982114432 
0.0008061455981 
0.0002280691402 
0.0006947579285 
0.0002374527531 
0.0004729863003 
0.0002535184621 
0.0001720670873 
0.0002129145927 
0.0005876894798 
0.0001840533138 
0.0002198630667 
0.0004840132758 
0.0001577982625 
0.0005998737652 
0.0004182817253 
0.0004852652215 
0.0004421484669 
0.0001367782003 
0.0001105460028 
0.0003482588412 
0.0006149149671 
0.0001695220313 
0.000452077802 
0.0002428420009 
0.0002530506492 
0.0002335555983 
0.0007154651846 
0.0009373974127 
0.0003877400803 
0.0006797639113 
0.0003706951779 
0.0005772165317 
0.0004993697747 
0.0004879766223 
0.0003644236329 
0.0006049212594 
0.0009171289936 
0.0003549156855 
0.0002729935571 
0.0003151363349 
0.0001555807083 
0.0002319176744 
0.000379561479 
0.0004170556411 
0.0005865381095 
0.0007380977892 
0.0002973768757 
0.0003047605896 
0.0002052681803 
0.0003149189075 
0.0006102123752 
0.0004973864144 
0.0005215033212 
0.0003055312713 
0.0002768918212 
0.000325087364 
0.0003938315009 
0.0002775647802 
0.0001915112458 
0.0002882470921 
0.0002952924258 
0.0004212974638 
0.0003554177589 
0.0002508674516 
0.0002496442435 
0.0005704980586 
0.0002872048237 
0.0002405309969 
0.0001462102708 
0.0004472072133 
0.0003796482049 
0.0005793766862 
0.0005156009868 
0.0004500400534 
0.0003055669453 
0.0003734189605 
0.0003282460855 
0.0001693506641 
0.0004463317211 
0.0004789513884 
0.0004675913632 
0.0003615736837 
0.0002168141029 
0.0002832087684 
0.0001277761148 
0.0003300540272 
0.0003434426962 
0.0001964749185 
0.0009310021675 
0.0002361449997 
0.0002470230532 
0.0003859306832 
0.0002507783439 
0.0003328205518 
0.0003487640418 
0.0003026959197 
0.0002165406409 
0.0002930986902 
0.0004074971298 
0.0004748716895 
0.0003454030876 
0.0002705211376 
0.000515204512 
0.0004224070349 
0.0005273767062 
0.0003396020666 
0.0002200954734 
0.0002460488995 
0.0004257800814 
0.0003123987657 
0.0005177988359 
0.0002610173882 
0.0003078283666 
0.0003643090068 
0.0003470206933 
0.0003951744232 
0.0003404275467 
9.730178967e-05 
0.0003418311555 
0.0002844715888 
9.359478532e-05 
7.761229833e-05 
0.0003692882594 
0.0002304577328 
0.000333364731 
0.0004603921628 
0.0002562055051 
0.0006927569735 
0.0002474434562 
0.0002511637426 
0.0004156401718 
0.0003160276551 
0.0004021730967 
0.0004684034572 
0.0006160434628 
0.0005524280014 
0.0003769920677 
0.0006794994724 
0.00068855996 
0.0002745318198 
0.0002831986135 
0.0002437200271 
0.0003306341479 
0.0004595741381 
0.001104690115 
0.0008456669112 
0.0006712429375 
0.0006283151004 
0.0005077716618 
0.0004534314076 
0.0003556308854 
0.0006599641203 
0.0006624097268 
0.0005153187835 
0.0002537556669 
0.0002787040341 
0.0004826614649 
0.0004151404886 
0.0004802510097 
0.000373713379 
0.0003554094449 
0.0004346178524 
0.0003334518957 
0.0006547832105 
0.0005972460653 
0.0006144987139 
0.0002078524455 
0.0003061279379 
0.0001378927547 
0.0009263295065 
0.0002447873047 
0.000232656709 
0.0003365112482 
0.0003135864779 
0.0002648481242 
0.0003427962902 
0.0005746976506 
4.537539616e-05 
0.0005087539836 
0.0005308562158 
0.0006308099983 
0.0004301427878 
0.0004678434473 
0.0003529404016 
0.0001301325139 
0.0001775212076 
0.0003528336249 
0.0005526308636 
0.0004136245277 
0.0008205980952 
0.0005035478519 
0.0004720539876 
0.0005308421268 
0.0003430877478 
0.0003609522636 
0.0008577139559 
0.0001551265293 
0.0005429777347 
0.0003765687193 
0.0005249879883 
0.0009714457416 
0.0002867678902 
0.0006990982496 
0.0003274473574 
0.000326996474 
0.0002736757694 
0.0002931986141 
0.0001858699821 
0.0003662597639 
0.0004295737638 
0.0007320433903 
0.0003088103286 
0.0003362052895 
0.0003330286887 
0.0004749976497 
0.0004368395457 
0.000221695729 
0.0004267040277 
0.0003651973811 
0.0005933858324 
0.0007914514021 
0.000357555729 
0.0002700376954 
0.0001980863769 
0.0002576748544 
0.000288194676 
0.0009146340979 
0.000391585139 
0.0003909901559 
0.0001831868347 
0.0007408017856 
0.0003887997006 
0.0003032383511 
0.0006405643267 
0.0005165980214 
0.0003041368926 
0.0006412610585 
0.0004931459229 
0.000212408101 
0.0005003994202 
0.0001863613289 
0.0002273573436 
0.0002386606755 
0.00018620322 
0.0001076025245 
0.0007380333623 
0.0002698681588 
0.0002136359232 
0.0002568751237 
0.0001616188544 
0.000293640475 
0.0003707652415 
7.324367746e-05 
0.0003484896215 
0.0003299009742 
0.0002245268312 
0.0004080865993 
7.828097007e-05 
0.0002724732938 
0.0004602755414 
0.0001716230431 
0.000281110337 
0.000186464301 
0.0002239255171 
0.0003016138376 
0.0004836285038 
0.0001308118257 
0.0001995769388 
0.0004144313946 
0.0002147549756 
0.0007212577976 
0.0005369630241 
0.0007861919123 
0.0002933290005 
0.0003331288836 
0.0006887527554 
0.0006179584833 
0.0003023362015 
0.0002667829611 
0.0003140286781 
0.0004840967521 
0.0005030618253 
0.0004382225797 
0.0002569683518 
0.0001932337557 
0.0002282767171 
0.0002261354617 
0.0001756569993 
0.0001931362099 
0.0002933310134 
0.00025456925 
0.0002916119152 
0.0005229465937 
0.0003430469978 
0.0005774109353 
0.0005181640111 
0.0003823294066 
0.0004670135748 
0.0004016611557 
0.0003426464315 
0.0003291981877 
0.0004952629977 
0.0002747079165 
0.0003577620338 
0.0007015172223 
0.0005298856304 
0.0001964587505 
0.0001914624839 
0.000552383344 
0.0004372691207 
0.0003006040625 
0.0005107685306 
0.0003233749152 
0.0003504585987 
0.0004945422043 
0.0004416665239 
0.0002830666159 
0.000244713947 
0.0002951443533 
0.0002077006447 
0.0002398496268 
0.0003960979047 
0.0004092312526 
0.0005787801241 
0.000399563158 
0.0004621225471 
0.0004106746749 
0.0007145878338 
0.0003824974869 
0.0003817395556 
0.0007744573871 
0.0005256655028 
0.0004605046788 
0.0006120115041 
0.0002477596184 
0.0005142961163 
0.0003066468358 
0.000362736096 
0.0002898208899 
0.0002246984049 
0.0002559025545 
0.0005982567918 
0.0003614267363 
0.0003303578338 
0.0004364213759 
0.0003492314578 
0.000257501969 
0.0003511855881 
0.0002441884236 
0.0009969698289 
0.0002227489383 
0.0004428605592 
0.0002185120195 
0.0004080038336 
0.0003792909831 
0.0003273000316 
0.0002890653514 
0.0007108067241 
0.0003928204053 
0.000340069153 
0.0001654641077 
0.0002982245474 
0.0005940968318 
0.0006198827261 
0.0007373299843 
0.0006369470319 
0.0003969387686 
0.0004235254556 
0.0002432735302 
0.0003064157268 
0.0002988813697 
0.0003708912199 
0.0002394970235 
0.0007764532725 
0.0005535498335 
0.0003851277221 
0.0003027080686 
0.0003524739381 
0.0002590291703 
0.0006927781896 
0.0005063301136 
0.0004292567254 
0.0003552208021 
0.0006141376432 
0.0001588975468 
0.0005784814066 
0.0005678010605 
0.0008125159304 
0.0008152093282 
0.0003096255568 
0.0004078330093 
0.0003870474759 
0.0002063263095 
0.0001773576924 
0.0003786638834 
0.0003246095882 
0.0002427994796 
0.0002185235785 
0.0002402525785 
0.0004457512646 
0.0003563469452 
0.0006174652818 
0.0008143099931 
0.000214516461 
0.0003989056048 
0.0005220985382 
0.0004706190612 
0.0004062811395 
0.0003552476037 
0.000384723394 
0.0003884475812 
0.0005709712194 
0.0004049351577 
0.0001626849238 
0.0008540477573 
0.0004212108508 
0.0004505297616 
0.0006300297143 
0.0003357401107 
7.035309249e-05 
0.0004674712481 
0.0006112356766 
0.0004540357224 
0.0003112086118 
0.0007118063555 
0.000352010084 
0.0003320000101 
0.0004024976709 
0.0002987518283 
0.0003218239598 
0.0001235466633 
0.0005782676633 
0.0004773607921 
0.0005488211492 
0.0003390445509 
0.0005962332724 
0.0005999102715 
0.0002702533993 
0.0005152293383 
0.0002365917936 
0.00042062811 
0.0003181162822 
0.0004003490609 
0.0005558720793 
0.0004280588854 
0.0003816356788 
0.0002718190857 
0.0002115512025 
0.0003170515098 
0.0002411145445 
0.000251825736 
0.0002989713482 
0.0003767661231 
0.0003794308409 
0.0003666180366 
0.0004024935686 
0.0004682128301 
0.0007618924765 
0.0007621255102 
0.0007553255855 
0.0003919760988 
0.0002483093139 
0.0003049955764 
0.0005872788436 
0.000365811506 
0.0003084747013 
0.0004249481698 
0.0005428093517 
0.0004589437158 
0.000208193065 
0.0004131212603 
0.0003171593163 
0.0003617308067 
0.0002556046501 
0.0003674857488 
0.0006516428689 
0.0005733957073 
0.0007608273415 
0.000539698363 
0.000671243346 
0.0004039257606 
0.0005595289061 
0.0005480681598 
0.0005613973445 
0.0005968627341 
0.0007208515412 
0.0003815899277 
0.0004511404955 
0.0002957639093 
0.0002704801127 
0.00019936469 
0.0005639295863 
0.0002293856156 
0.000416617871 
0.0003244227722 
0.0002749275317 
0.000111905164 
0.0001830376338 
0.0001497569161 
0.0001263844165 
0.0002710112505 
0.0002551354764 
0.0003502802676 
0.000586874191 
0.0003734362517 
0.0003592449219 
0.0004594423526 
0.0001539443248 
0.0002002598858 
0.0003041845339 
0.000499224323 
0.0002027537403 
0.000192059332 
0.0003250941757 
0.0003923670141 
0.0002821790028 
0.0001853255301 
0.0002151084605 
0.0003860018446 
0.0003661131258 
0.0003844368202 
0.0001949829438 
0.0003199705604 
0.0002615853927 
0.0004821934902 
0.0004215121816 
0.000476132455 
0.000239145159 
0.0004366318007 
0.0003845818687 
0.0004359868 
0.0008480335683 
0.0002332199244 
0.0004645284951 
0.000450300945 
0.0001731256369 
0.0004180493329 
0.0003654522977 
0.0001734019899 
0.0002834740418 
0.0005251820551 
0.000267817347 
0.0006754605214 
0.00023469201 
0.0002164754101 
0.0001980290995 
0.0003706011275 
0.0004332703315 
0.0005113459444 
0.0004930535117 
0.0004731173686 
0.0005945357316 
0.0005733680703 
0.0002684505578 
0.0004973980058 
0.0005551722899 
0.0003535963893 
0.0002774859821 
0.0002708361274 
0.0004439633924 
0.0007864305134 
0.0005155924981 
0.000399270096 
0.0001181349861 
0.0002319923196 
0.0002624195692 
0.0001946660715 
0.0004755003473 
0.0002960832991 
0.0003623144327 
0.0007630325664 
0.0002738495311 
0.0002753091013 
0.0006505621872 
0.000399147411 
0.0004079715711 
0.0003388334402 
0.0004178994567 
0.0001567096879 
0.0003559667715 
0.0003032877374 
0.0003758835558 
0.0002398755437 
0.0004756396497 
0.0003869601663 
0.0003980432864 
0.0002220236694 
0.0006048581086 
0.0002148227943 
0.0007348137036 
0.0004836524262 
0.0004713662187 
0.000413089788 
0.0003990565899 
0.0003515804315 
0.0006794858908 
0.0003455406704 
0.0004414833688 
0.0002993402389 
0.0003893425903 
0.0001807194944 
0.0001397128855 
0.0003847135319 
0.0002961206348 
0.0003080992792 
0.0001570300158 
0.0002115099522 
0.0003235886394 
0.0002630453736 
0.0004425300694 
0.0007387482269 
0.0002974823644 
0.0002881410227 
0.0002823125287 
0.0004766697047 
0.0006616390491 
0.0004098267023 
0.000313616543 
0.0003483723282 
0.0002394947341 
0.0004244485452 
0.000428933912 
0.0004734693167 
0.0004798689223 
0.000548204472 
0.0006127573828 
0.0005884764097 
0.0003439863205 
0.0003369857165 
0.0003496377899 
0.0002597221302 
0.0003314215454 
0.0002208455173 
0.0002796685807 
0.0004901159569 
0.0008101504626 
0.0002867932859 
0.0004914257335 
0.0001877427404 
0.0003560843052 