# vtk DataFile Version 3.0
MOAB 4.9.0
ASCII
DATASET UNSTRUCTURED_GRID
POINTS 280 double
3.25 4.329780281e-17 0.5
3.25 0.1913417162 0.4619397663
3.25 0.3535533906 0.3535533906
3.25 0.4619397663 0.1913417162
3.25 0.5 -1.268163283e-17
3.25 0.4619397663 -0.1913417162
3.25 0.3535533906 -0.3535533906
3.25 0.1913417162 -0.4619397663
3.25 1.793453715e-17 -0.5
3.25 -0.1913417162 -0.4619397663
3.25 -0.3535533906 -0.3535533906
3.25 -0.4619397663 -0.1913417162
3.25 -0.5 -4.855070712e-17
3.25 -0.4619397663 0.1913417162
3.25 -0.3535533906 0.3535533906
3.25 -0.1913417162 0.4619397663
4.25 -4.329780281e-17 0.5
4.25 -0.1913417162 0.4619397663
4.25 -0.3535533906 0.3535533906
4.25 -0.4619397663 0.1913417162
4.25 -0.5 -1.481306321e-16
4.25 -0.4619397663 -0.1913417162
4.25 -0.3535533906 -0.3535533906
4.25 -0.1913417162 -0.4619397663
4.25 -1.911257484e-16 -0.5
4.25 0.1913417162 -0.4619397663
4.25 0.3535533906 -0.3535533906
4.25 0.4619397663 -0.1913417162
4.25 0.5 -3.571909177e-16
4.25 0.4619397663 0.1913417162
4.25 0.3535533906 0.3535533906
4.25 0.1913417162 0.4619397663
3.75229658 0.4157303493 0.2777917865
3.752436713 0.4903917864 0.09754945338
3.752536895 0.4903935121 -0.0975407775
3.752540114 0.4157372936 -0.2777813937
3.752540521 0.2777887698 -0.4157323651
3.75254058 0.09754941354 -0.4903917943
3.752540644 -0.09754100763 -0.4903934663
3.752541001 -0.2777818287 -0.415737003
3.752543069 -0.4157330576 -0.2777877334
3.752554351 -0.4903924797 -0.09754596771
3.752612631 -0.490391399 0.09755140093
3.752659192 -0.4157383116 0.2777798702
3.752689743 -0.2777936628 0.4157290956
3.752359347 0.2778016478 0.4157237598
3.752563573 0.09755260587 0.4903911593
3.752712426 -0.09757971952 0.4903857648
3.919090351 -0.3535539394 0.3535528418
3.919082017 -0.4619418409 0.1913367076
3.918895725 -0.4999999999 -9.540688928e-06
3.918890366 -0.4619360485 -0.1913506914
3.918889718 -0.3535464012 -0.3535603799
3.918889643 -0.1913325285 -0.4619435718
3.918889631 9.972457277e-06 -0.4999999999
3.918889601 0.1913509782 -0.4619359297
3.918889373 0.3535606212 -0.3535461598
3.918887641 0.4619439922 -0.1913315137
3.918874426 0.4999999998 1.438675766e-05
3.918773168 0.4619290173 0.1913676643
3.918752697 0.3535663476 0.3535404331
3.91876169 0.1913493459 0.4619366058
3.919058505 -0.1913967174 0.4619169802
3.91876066 4.104430722e-05 0.4999999983
3.585841812 0.3535427582 0.3535640226
3.586083383 0.461949115 0.1913191448
3.586179594 0.5 -4.138107897e-08
3.586179702 0.4619397721 -0.191341702
3.586179718 0.353553407 -0.3535533742
3.586179722 0.1913417306 -0.4619397603
3.586179733 -1.936919255e-08 -0.5
3.586179797 -0.1913418517 -0.4619397101
3.586180186 -0.3535538087 -0.3535529725
3.586182453 -0.4619405557 -0.1913398103
3.586194418 -0.5 6.378740527e-06
3.586243432 -0.4619341372 0.1913553055
3.58627502 -0.3535595294 0.3535472517
3.586299553 -0.1913587702 0.4619327019
3.586157854 0.1913464652 0.4619377991
3.586409528 -2.470078979e-05 0.4999999994
4.084906307 -0.2777441513 0.4157621753
4.084565484 -0.4157665856 0.2777375493
4.084385714 -0.490395188 0.09753235131
4.084385714 -0.490390092 -0.09755797064
4.084385714 -0.4157275499 -0.2777959759
4.084385714 -0.277774257 -0.4157420621
4.084385714 -0.09753235154 -0.490395188
4.084385713 0.09755797022 -0.4903900921
4.084385708 0.2777959763 -0.4157275497
4.084385674 0.415742068 -0.277774248
4.084385439 0.4903952031 -0.09753227563
4.08438391 0.4903900078 0.09755839428
4.08437459 0.4157263964 0.2777977022
4.084323458 0.2777672959 0.4157467129
4.084099415 0.09751069872 0.4903994939
4.083758225 -0.09750263527 0.4904010972
3.418948219 0.2777851165 0.4157348062
3.418948219 0.4157348062 0.2777851165
3.418948219 0.4903926402 0.09754516101
3.418948219 0.4903926402 -0.09754516101
3.418948219 0.4157348062 -0.2777851165
3.418948219 0.2777851165 -0.4157348062
3.418948219 0.09754516101 -0.4903926402
3.418948219 -0.09754516101 -0.4903926402
3.418948219 -0.2777851165 -0.4157348062
3.418948219 -0.4157348062 -0.2777851165
3.418948219 -0.4903926402 -0.09754516101
3.418948219 -0.4903926402 0.09754516101
3.418948219 -0.4157348062 0.2777851165
3.418948219 -0.2777851165 0.4157348062
3.418948219 -0.09754516101 0.4903926402
3.418948219 0.09754516101 0.4903926402
3.25 0.04618786222 0.2963534528
3.25 0.2416448663 0.2471254499
3.25 0.2954670438 0.05963488799
3.25 0.3225470908 -0.1331064319
3.25 0.1690736851 -0.2542322551
3.25 0.0003851645617 -0.3507835239
3.25 -0.1709888883 -0.2557913799
3.25 -0.324582301 -0.1358347811
3.25 -0.3031155981 0.0551308723
3.25 -0.2748242166 0.211119053
3.25 -0.1469191159 0.3259851843
3.25 0.1028748785 0.1108713685
3.25 0.1472092839 -0.06529403026
3.25 -0.002601132257 -0.1669935442
3.25 -0.1522756309 -0.06335516553
3.25 -0.1046363503 0.1323595946
3.25 -0.00188579022 -0.01048235539
4.25 -0.04618786222 0.2963534528
4.25 -0.2416448663 0.2471254499
4.25 -0.2954670438 0.05963488799
4.25 -0.3225470908 -0.1331064319
4.25 -0.1690736851 -0.2542322551
4.25 -0.0003851645617 -0.3507835239
4.25 0.1709888883 -0.2557913799
4.25 0.324582301 -0.1358347811
4.25 0.3031155981 0.0551308723
4.25 0.2748242166 0.211119053
4.25 0.1469191159 0.3259851843
4.25 -0.1028748785 0.1108713685
4.25 -0.1472092839 -0.06529403026
4.25 0.002601132257 -0.1669935442
4.25 0.1522756309 -0.06335516553
4.25 0.1046363503 0.1323595946
4.25 0.00188579022 -0.01048235539
3.882776737 0.04894499481 -0.2220858335
4.039094925 -0.1369694471 -0.3427574635
3.884786367 -0.1315554976 -0.1808400452
3.881288528 -0.07428178936 -0.3667686582
3.752492189 -0.1390841901 -0.2770361006
3.946673393 0.1924162358 -0.1069073007
3.752440453 0.09578762949 -0.1627802104
3.883045912 0.03096500225 -0.06401421875
3.75930357 -0.05762710422 -0.1315472126
3.497174263 0.05975848436 0.1717361957
3.382961512 0.01481741387 0.1120257527
3.503227949 -0.02902132832 -0.01991494186
3.576123238 -0.07050084323 0.09567876905
3.492750883 -0.09005270898 0.2043163627
3.622993469 0.03889079764 -0.07788622379
3.629523993 -0.2014659196 0.01007657964
3.374613523 -0.104105711 0.05601034686
3.494870663 -0.2276477814 0.06339307129
3.613856077 -0.2906973064 0.1957978159
3.687670231 -0.09061796963 0.2087958455
3.750622511 -0.1217389405 0.05273131654
3.389467955 0.02718310803 -0.264062196
3.877369404 -0.1719222516 -0.007364389021
3.883064985 -0.04317782819 0.1113674939
4.010352135 -0.03526240215 0.02970348671
3.828439713 -0.01088271383 0.2535621822
3.740407705 0.0819356069 0.1204198897
3.824334383 -0.1598321944 0.1736149937
4.128157139 0.29281497 -0.1994662881
4.070095062 0.1203416213 -0.2064325064
4.006055832 0.2609803081 -0.2632327378
4.006054878 0.3408309817 -0.1437219083
4.126692772 0.2707525194 -0.06056796759
3.883547783 0.2051290125 -0.3090087175
4.011561394 -0.1394414604 -0.09306956083
4.011505604 0.02440807596 -0.1435788423
3.752491713 0.005109666847 -0.3367618322
3.883214474 0.174229756 0.1586227119
3.752389193 0.1864669919 0.01120432001
3.486555099 0.2090698481 -0.2943248153
3.748239756 -0.3192851841 0.1576472074
3.760835886 -0.147855565 0.3192923963
4.010416031 -0.2372856736 0.04413828626
4.009836674 -0.1115376204 0.2043138444
3.892598867 -0.3028818667 0.2039305866
3.875154257 -0.3541843295 0.0710875988
3.759584427 -0.3064258099 -0.01632795855
3.620628834 0.1848253906 -0.07369686663
3.477208853 0.1543720961 -0.1534981281
3.456721544 0.3619123697 -0.0033506623
3.482131004 0.3229436874 -0.157772392
3.620194912 0.3057552278 -0.2073875368
3.501586914 0.1706002355 0.07217893004
3.620120049 0.3607504964 0.06909929216
3.751832008 0.3612474203 -0.00275701494
3.613128424 0.1987650394 -0.2974309325
3.462390184 -0.0003862817539 0.3693757653
4.004081249 0.02960701101 0.1802643538
3.614659548 0.06556282192 -0.3436109722
3.621077776 -0.07231428474 -0.2225129008
3.755366802 0.1113913953 0.3235614896
3.883415937 0.2051376104 0.3034798801
3.883265495 0.07168339938 0.3517376781
4.007369518 -0.001433794387 0.3655075133
3.873948336 -0.06000592932 0.3621217608
3.622505188 0.07149133086 0.3403122127
3.498458862 0.0222509671 -0.1789467037
3.37248373 0.05522564799 -0.07026445866
4.006056309 0.141473189 -0.3430883586
4.127370358 0.09785825759 -0.07741965353
4.009810448 0.1569599956 0.0988060683
4.131858349 -0.04666024446 -0.1063163728
3.883544683 0.3617441952 -0.07461376488
3.751870155 0.3337497115 -0.141000554
4.004743099 0.007097215857 -0.3623008132
4.051519871 -0.2591477036 -0.2642817795
3.886957884 -0.3027065694 -0.2095356584
4.1398592 -0.1131882071 0.02045940422
4.126005173 -0.2271451205 -0.06351072341
3.752491713 0.1611832976 -0.3367604911
3.749698162 -0.2735821307 -0.180829674
3.88354826 -0.2041305602 -0.309012115
3.371235371 -0.2861270607 -0.1978695095
3.380572557 -0.2524553537 -0.05393719673
3.493270159 -0.3467098773 -0.1563621759
3.489269257 -0.1731592417 -0.1464001536
3.369916677 -0.1021765843 -0.1324334443
3.361545324 -0.08981714398 -0.352655828
3.499314547 -0.1217878088 -0.3340887725
3.497548103 0.3397599161 0.1381579936
3.47815752 -0.2505749166 0.2508822083
3.3616364 -0.2337082326 0.1433821023
3.370560646 -0.06871642917 0.252636224
3.64066577 -0.06177094206 0.3577993214
3.501832962 -0.2608842552 -0.266517669
3.502761602 0.04308666289 -0.3605641127
3.367225885 0.1065153927 0.005502523389
3.628815174 -0.2096199393 0.2967191339
3.62024498 -0.3617390096 0.06909967214
3.492119789 -0.3713643253 -0.007054984104
3.489887953 -0.3406397402 0.1280905306
4.004564285 -0.338917613 0.1602028608
4.126694202 -0.1788579375 0.1521641612
3.888891697 -0.3582018018 -0.07548381388
4.041054726 0.3720936477 -0.002060316969
3.88346982 0.3617438078 0.06909929216
4.076067924 -0.3748287857 -0.001386062359
4.128119469 0.07049079239 -0.3469388485
4.128937244 -0.03862981871 -0.2641827762
4.008891106 0.1415032893 0.3361614645
3.620205402 -0.3617429435 -0.07461749762
3.620060205 0.2041444033 0.3034798801
3.883547306 0.30674842 -0.2073875368
3.620193243 0.360751003 -0.07461376488
3.375145435 0.1834451407 0.142144978
3.475331783 0.1887006015 0.3256025314
3.620011568 0.3057467639 0.201871857
3.349015236 0.1901929975 -0.09953835607
3.752337694 0.2771479785 0.185191825
[...]
POINT_DATA 280
SCALARS KDE_TALLY_TAG double 1
LOOKUP_TABLE default
0.4631772054 
0.4434664303 
0.4522294258 
0.495408739 
0.4566302269 
0.4847045806 
0.4722443682 
0.4976726698 
0.4637722105 
0.4641074284 
0.4593612666 
0.4385300906 
0.4634626375 
0.4784112543 
0.4431392706 
0.4559907448 
0.3739421425 
0.3870122956 
0.3529307441 
0.3764966477 
0.3786301356 
0.3930077815 
0.3815268654 
0.3975162255 
0.3843322052 
0.3872613934 
0.3900101217 
0.3729803012 
0.3645424441 
0.3644382493 
0.3814700977 
0.4017298746 
0.3510319059 
0.3418278523 
0.3280860351 
0.3610213005 
0.3518482651 
0.3322101771 
0.3237665021 
0.3122524044 
0.3360875996 
0.3272476414 
0.333392522 
0.3412882737 
0.3196707573 
0.334612767 
0.3448867285 
0.3491441476 
0.3377518835 
0.3161602666 
0.3405065456 
0.3101832062 
0.3244827117 
0.3219104919 
0.2856724272 
0.3009315075 
0.3631645635 
0.3347166844 
0.3175596018 
0.3149445284 
0.3498767264 
0.3363103393 
0.320990119 
0.3267151409 
0.3727383859 
0.3318514882 
0.3377757406 
0.3574575781 
0.3514832611 
0.3687150389 
0.3389245768 
0.3300239296 
0.3200138113 
0.3385976802 
0.3413644692 
0.344665468 
0.3319848668 
0.3565541599 
0.3692634373 
0.3402043018 
0.3090556769 
0.2997538612 
0.3389041157 
0.287200835 
0.3105071877 
0.3096115917 
0.3293490261 
0.3199333068 
0.320753962 
0.2930594564 
0.3097664502 
0.3069112938 
0.3207913936 
0.3372417124 
0.307147021 
0.3072354733 
0.3671770624 
0.3658431294 
0.3828959171 
0.3693895062 
0.3798773399 
0.3794511113 
0.3690721407 
0.3613295991 
0.3795883207 
0.3842775988 
0.3813276266 
0.3826176197 
0.3395703887 
0.3752947625 
0.3662841722 
0.3493171268 
0.3904331849 
0.358009044 
0.4063385593 
0.3975047522 
0.371084114 
0.3791793588 
0.3730001915 
0.3759444073 
0.3872741773 
0.3872829222 
0.3509571293 
0.3920446064 
0.3389120156 
0.4031042052 
0.3832511927 
0.3738382238 
0.3589148495 
0.2964848752 
0.3077239653 
0.3131608569 
0.2994865564 
0.3234562528 
0.3182950176 
0.2874642577 
0.369857932 
0.3111447281 
0.324447678 
0.3190623277 
0.2865632311 
0.3310786308 
0.3152110971 
0.3020676739 
0.3048546262 
0.3127031774 
0.227678888 
0.224904286 
0.2451819545 
0.2247642803 
0.2723289674 
0.2476175166 
0.2467241054 
0.2193975071 
0.2411759205 
0.2487046438 
0.2829079364 
0.2740334141 
0.2487941226 
0.2370894193 
0.2582335522 
0.2323757518 
0.2761491928 
0.2763457671 
0.2515769871 
0.2154446014 
0.2249345538 
0.2791338856 
0.2280515424 
0.2254981715 
0.2363379122 
0.2180616618 
0.2313987488 
0.2153183048 
0.2138979233 
0.2300028862 
0.2005381673 
0.2231269634 
0.2300091752 
0.2234137401 
0.1991201139 
0.2511834461 
0.2295382447 
0.2259091828 
0.2172305394 
0.2421498226 
0.2377890335 
0.2282340537 
0.2075033786 
0.2066883562 
0.2317913188 
0.2215733975 
0.2412266583 
0.2564833962 
0.2722957568 
0.2626234817 
0.2639919286 
0.2695748239 
0.2449679462 
0.2462794827 
0.2557695062 
0.2453610401 
0.2769263524 
0.2061452786 
0.2531870764 
0.2406229718 
0.2469574641 
0.2138542387 
0.2347326427 
0.2075931711 
0.2469129226 
0.2652741558 
0.2691167099 
0.2781835126 
0.2032106121 
0.2269514532 
0.210099308 
0.225072987 
0.2327193564 
0.2276697445 
0.2126613511 
0.2064732254 
0.2435391109 
0.2158300303 
0.2277278161 
0.2191007017 
0.2286630486 
0.2235771612 
0.2716059922 
0.2794134367 
0.2448338411 
0.2504156693 
0.2907059741 
0.2914543052 
0.2579248695 
0.2458078239 
0.2738791857 
0.3040262011 
0.2898095609 
0.2401412402 
0.2304875922 
0.245853085 
0.2875742665 
0.2213558175 
0.2605950168 
0.244076008 
0.2428337167 
0.2183294354 
0.2244440165 
0.2369119496 
0.2244068513 
0.2325909426 
0.2123804797 
0.2281251394 
0.2410979453 
0.219192654 
0.2530282131 
0.2531297029 
0.2094726706 
0.2640453211 
0.2680128732 
0.2516768325 
0.2401770715 
0.2901543757 
0.237595878 
0.2146938613 
0.2389433792 
0.2079588008 
0.2215870684 
0.2188887152 
0.2154503879 
0.2206338449 
0.2399735188 
0.2190142693 
0.2097203173 
0.2361769004 
0.2491197302 
0.2299134092 
0.2154926694 
0.2493220094 
SCALARS KDE_ERROR_TAG double 1
LOOKUP_TABLE default
0.03983616832 
0.03917785405 
0.03947704784 
0.03778780209 
0.03917722687 
0.03807103437 
0.0388551568 
0.03790342398 
0.03987492079 
0.03892731753 
0.03843591916 
0.03976306153 
0.03856499223 
0.0400413075 
0.03914276119 
0.04032011924 
0.04227505644 
0.04293752662 
0.04321185693 
0.0413083125 
0.04186379258 
0.04169251069 
0.04186495309 
0.04243618586 
0.04061807028 
0.04177342988 
0.04285110764 
0.04352831801 
0.042599441 
0.04378597725 
0.04286457139 
0.04255137851 
0.04335459565 
0.04442490377 
0.04545712626 
0.04073012524 
0.04248805399 
0.04225249547 
0.04277036226 
0.04398283717 
0.04428723099 
0.04405065832 
0.04357782121 
0.04400066362 
0.04354816463 
0.04224233357 
0.04243529428 
0.04375442599 
0.04587101903 
0.04392439246 
0.04357609631 
0.04438374695 
0.04308438099 
0.04389410057 
0.04770683547 
0.0444117926 
0.04123396487 
0.04445060758 
0.04501034186 
0.04293920657 
0.04401028871 
0.04388251521 
0.04345098093 
0.04349271826 
0.04252035617 
0.04199848353 
0.04245422524 
0.04296627603 
0.04252200258 
0.04254894931 
0.04292021097 
0.04353533713 
0.04344334489 
0.04252580619 
0.04229818789 
0.044138176 
0.04171404714 
0.04484154615 
0.04271168055 
0.04258482353 
0.04421230216 
0.0435959387 
0.04341530586 
0.04440329495 
0.04427281869 
0.0448296997 
0.04253916572 
0.044408913 
0.04184727332 
0.04416724046 
0.04317733028 
0.04493745003 
0.04512664516 
0.04357358999 
0.04252294255 
0.04444945011 
0.04043959922 
0.0399927265 
0.04075529852 
0.04119233188 
0.04255470456 
0.03959883736 
0.04208101674 
0.04108629036 
0.04164475988 
0.04183374901 
0.04098914139 
0.04031175626 
0.03949767721 
0.04154360899 
0.03992221582 
0.04311994687 
0.04264385741 
0.04280343795 
0.04360106671 
0.04193102419 
0.0441201506 
0.04205773177 
0.04126272634 
0.04165037195 
0.04093478014 
0.04277078765 
0.04117842785 
0.04294580593 
0.04400706068 
0.04309794204 
0.04297194778 
0.04218501212 
0.04204145273 
0.04590135502 
0.04529672158 
0.04598375509 
0.04558513903 
0.04597129297 
0.04610890838 
0.04866207527 
0.04383584397 
0.04618231678 
0.04576931665 
0.04603037403 
0.04702505872 
0.04491202652 
0.04726395658 
0.04705985762 
0.04701646425 
0.04763315365 
0.06025086444 
0.05541350109 
0.06112662378 
0.05684368013 
0.05561458459 
0.05990385127 
0.0587239684 
0.06368182939 
0.06102153354 
0.05834331893 
0.05185473531 
0.05671925961 
0.05928174731 
0.05736591668 
0.05954031784 
0.06110993495 
0.05007937457 
0.05412537764 
0.05711688948 
0.06201877692 
0.06036219835 
0.05070535109 
0.06271528004 
0.06042939129 
0.06120951974 
0.06012876194 
0.05997713845 
0.06386832875 
0.05470576949 
0.05818308849 
0.06149015975 
0.0572490568 
0.05345560344 
0.0568741628 
0.06367382775 
0.06064784929 
0.05698107908 
0.0629490274 
0.06180714813 
0.05377441891 
0.05934630552 
0.05860437499 
0.06199237503 
0.06128989839 
0.05868953554 
0.05803586948 
0.05897878254 
0.05876767839 
0.05362050654 
0.05301236836 
0.04958991016 
0.0524190568 
0.05794855617 
0.05593894451 
0.05561900094 
0.05543239787 
0.05022162599 
0.06339318487 
0.05650493671 
0.06158579405 
0.05733121124 
0.05922524137 
0.05727759353 
0.05671860527 
0.0578164689 
0.05433376208 
0.05789263329 
0.04934705416 
0.05940328409 
0.05616680751 
0.06008152119 
0.0546041501 
0.05548741786 
0.05597243937 
0.05681864452 
0.05847677527 
0.05649263022 
0.05752076814 
0.05335711339 
0.0577285111 
0.05887121082 
0.05647188938 
0.04968847145 
0.04840494763 
0.05179280508 
0.05641792754 
0.04912151649 
0.0459039168 
0.0541913004 
0.05317997831 
0.05245164499 
0.04748210403 
0.04944462891 
0.05753796404 
0.0550914873 
0.05333025042 
0.05057149417 
0.05834376844 
0.05461938242 
0.0534828225 
0.05357524866 
0.05813383017 
0.05601744176 
0.05586073191 
0.05700630405 
0.05843926818 
0.05679259836 
0.05499533076 
0.05338785778 
0.05597846844 
0.05368875732 
0.05537779145 
0.0602864701 
0.05402321685 
0.04983103823 
0.05347815802 
0.05566528874 
0.04854949688 
0.0578363664 
0.05748616232 
0.05550508271 
0.06098908936 
0.05706126832 
0.05623902926 
0.0598187027 
0.05886103415 
0.05270062069 
0.05418796975 
0.05763875757 
0.05490310393 
0.05548127085 
0.05951716026 
0.05847296666 
0.05534676132 
