# vtk DataFile Version 3.0
MOAB 4.9.0
ASCII
DATASET UNSTRUCTURED_GRID
POINTS 280 double
3.25 4.329780281e-17 0.5
3.25 0.1913417162 0.4619397663
3.25 0.3535533906 0.3535533906
3.25 0.4619397663 0.1913417162
3.25 0.5 -1.268163283e-17
3.25 0.4619397663 -0.1913417162
3.25 0.3535533906 -0.3535533906
3.25 0.1913417162 -0.4619397663
3.25 1.793453715e-17 -0.5
3.25 -0.1913417162 -0.4619397663
3.25 -0.3535533906 -0.3535533906
3.25 -0.4619397663 -0.1913417162
3.25 -0.5 -4.855070712e-17
3.25 -0.4619397663 0.1913417162
3.25 -0.3535533906 0.3535533906
3.25 -0.1913417162 0.4619397663
4.25 -4.329780281e-17 0.5
4.25 -0.1913417162 0.4619397663
4.25 -0.3535533906 0.3535533906
4.25 -0.4619397663 0.1913417162
4.25 -0.5 -1.481306321e-16
4.25 -0.4619397663 -0.1913417162
4.25 -0.3535533906 -0.3535533906
4.25 -0.1913417162 -0.4619397663
4.25 -1.911257484e-16 -0.5
4.25 0.1913417162 -0.4619397663
4.25 0.3535533906 -0.3535533906
4.25 0.4619397663 -0.1913417162
4.25 0.5 -3.571909177e-16
4.25 0.4619397663 0.1913417162
4.25 0.3535533906 0.3535533906
4.25 0.1913417162 0.4619397663
3.75229658 0.4157303493 0.2777917865
3.752436713 0.4903917864 0.09754945338
3.752536895 0.4903935121 -0.0975407775
3.752540114 0.4157372936 -0.2777813937
3.752540521 0.2777887698 -0.4157323651
3.75254058 0.09754941354 -0.4903917943
3.752540644 -0.09754100763 -0.4903934663
3.752541001 -0.2777818287 -0.415737003
3.752543069 -0.4157330576 -0.2777877334
3.752554351 -0.4903924797 -0.09754596771
3.752612631 -0.490391399 0.09755140093
3.752659192 -0.4157383116 0.2777798702
3.752689743 -0.2777936628 0.4157290956
3.752359347 0.2778016478 0.4157237598
3.752563573 0.09755260587 0.4903911593
3.752712426 -0.09757971952 0.4903857648
3.919090351 -0.3535539394 0.3535528418
3.919082017 -0.4619418409 0.1913367076
3.918895725 -0.4999999999 -9.540688928e-06
3.918890366 -0.4619360485 -0.1913506914
3.918889718 -0.3535464012 -0.3535603799
3.918889643 -0.1913325285 -0.4619435718
3.918889631 9.972457277e-06 -0.4999999999
3.918889601 0.1913509782 -0.4619359297
3.918889373 0.3535606212 -0.3535461598
3.918887641 0.4619439922 -0.1913315137
3.918874426 0.4999999998 1.438675766e-05
3.918773168 0.4619290173 0.1913676643
3.918752697 0.3535663476 0.3535404331
3.91876169 0.1913493459 0.4619366058
3.919058505 -0.1913967174 0.4619169802
3.91876066 4.104430722e-05 0.4999999983
3.585841812 0.3535427582 0.3535640226
3.586083383 0.461949115 0.1913191448
3.586179594 0.5 -4.138107897e-08
3.586179702 0.4619397721 -0.191341702
3.586179718 0.353553407 -0.3535533742
3.586179722 0.1913417306 -0.4619397603
3.586179733 -1.936919255e-08 -0.5
3.586179797 -0.1913418517 -0.4619397101
3.586180186 -0.3535538087 -0.3535529725
3.586182453 -0.4619405557 -0.1913398103
3.586194418 -0.5 6.378740527e-06
3.586243432 -0.4619341372 0.1913553055
3.58627502 -0.3535595294 0.3535472517
3.586299553 -0.1913587702 0.4619327019
3.586157854 0.1913464652 0.4619377991
3.586409528 -2.470078979e-05 0.4999999994
4.084906307 -0.2777441513 0.4157621753
4.084565484 -0.4157665856 0.2777375493
4.084385714 -0.490395188 0.09753235131
4.084385714 -0.490390092 -0.09755797064
4.084385714 -0.4157275499 -0.2777959759
4.084385714 -0.277774257 -0.4157420621
4.084385714 -0.09753235154 -0.490395188
4.084385713 0.09755797022 -0.4903900921
4.084385708 0.2777959763 -0.4157275497
4.084385674 0.415742068 -0.277774248
4.084385439 0.4903952031 -0.09753227563
4.08438391 0.4903900078 0.09755839428
4.08437459 0.4157263964 0.2777977022
4.084323458 0.2777672959 0.4157467129
4.084099415 0.09751069872 0.4903994939
4.083758225 -0.09750263527 0.4904010972
3.418948219 0.2777851165 0.4157348062
3.418948219 0.4157348062 0.2777851165
3.418948219 0.4903926402 0.09754516101
3.418948219 0.4903926402 -0.09754516101
3.418948219 0.4157348062 -0.2777851165
3.418948219 0.2777851165 -0.4157348062
3.418948219 0.09754516101 -0.4903926402
3.418948219 -0.09754516101 -0.4903926402
3.418948219 -0.2777851165 -0.4157348062
3.418948219 -0.4157348062 -0.2777851165
3.418948219 -0.4903926402 -0.09754516101
3.418948219 -0.4903926402 0.09754516101
3.418948219 -0.4157348062 0.2777851165
3.418948219 -0.2777851165 0.4157348062
3.418948219 -0.09754516101 0.4903926402
3.418948219 0.09754516101 0.4903926402
3.25 0.04618786222 0.2963534528
3.25 0.2416448663 0.2471254499
3.25 0.2954670438 0.05963488799
3.25 0.3225470908 -0.1331064319
3.25 0.1690736851 -0.2542322551
3.25 0.0003851645617 -0.3507835239
3.25 -0.1709888883 -0.2557913799
3.25 -0.324582301 -0.1358347811
3.25 -0.3031155981 0.0551308723
3.25 -0.2748242166 0.211119053
3.25 -0.1469191159 0.3259851843
3.25 0.1028748785 0.1108713685
3.25 0.1472092839 -0.06529403026
3.25 -0.002601132257 -0.1669935442
3.25 -0.1522756309 -0.06335516553
3.25 -0.1046363503 0.1323595946
3.25 -0.00188579022 -0.01048235539
4.25 -0.04618786222 0.2963534528
4.25 -0.2416448663 0.2471254499
4.25 -0.2954670438 0.05963488799
4.25 -0.3225470908 -0.1331064319
4.25 -0.1690736851 -0.2542322551
4.25 -0.0003851645617 -0.3507835239
4.25 0.1709888883 -0.2557913799
4.25 0.324582301 -0.1358347811
4.25 0.3031155981 0.0551308723
4.25 0.2748242166 0.211119053
4.25 0.1469191159 0.3259851843
4.25 -0.1028748785 0.1108713685
4.25 -0.1472092839 -0.06529403026
4.25 0.002601132257 -0.1669935442
4.25 0.1522756309 -0.06335516553
4.25 0.1046363503 0.1323595946
4.25 0.00188579022 -0.01048235539
3.882776737 0.04894499481 -0.2220858335
4.039094925 -0.1369694471 -0.3427574635
3.884786367 -0.1315554976 -0.1808400452
3.881288528 -0.07428178936 -0.3667686582
3.752492189 -0.1390841901 -0.2770361006
3.946673393 0.1924162358 -0.1069073007
3.752440453 0.09578762949 -0.1627802104
3.883045912 0.03096500225 -0.06401421875
3.75930357 -0.05762710422 -0.1315472126
3.497174263 0.05975848436 0.1717361957
3.382961512 0.01481741387 0.1120257527
3.503227949 -0.02902132832 -0.01991494186
3.576123238 -0.07050084323 0.09567876905
3.492750883 -0.09005270898 0.2043163627
3.622993469 0.03889079764 -0.07788622379
3.629523993 -0.2014659196 0.01007657964
3.374613523 -0.104105711 0.05601034686
3.494870663 -0.2276477814 0.06339307129
3.613856077 -0.2906973064 0.1957978159
3.687670231 -0.09061796963 0.2087958455
3.750622511 -0.1217389405 0.05273131654
3.389467955 0.02718310803 -0.264062196
3.877369404 -0.1719222516 -0.007364389021
3.883064985 -0.04317782819 0.1113674939
4.010352135 -0.03526240215 0.02970348671
3.828439713 -0.01088271383 0.2535621822
3.740407705 0.0819356069 0.1204198897
3.824334383 -0.1598321944 0.1736149937
4.128157139 0.29281497 -0.1994662881
4.070095062 0.1203416213 -0.2064325064
4.006055832 0.2609803081 -0.2632327378
4.006054878 0.3408309817 -0.1437219083
4.126692772 0.2707525194 -0.06056796759
3.883547783 0.2051290125 -0.3090087175
4.011561394 -0.1394414604 -0.09306956083
4.011505604 0.02440807596 -0.1435788423
3.752491713 0.005109666847 -0.3367618322
3.883214474 0.174229756 0.1586227119
3.752389193 0.1864669919 0.01120432001
3.486555099 0.2090698481 -0.2943248153
3.748239756 -0.3192851841 0.1576472074
3.760835886 -0.147855565 0.3192923963
4.010416031 -0.2372856736 0.04413828626
4.009836674 -0.1115376204 0.2043138444
3.892598867 -0.3028818667 0.2039305866
3.875154257 -0.3541843295 0.0710875988
3.759584427 -0.3064258099 -0.01632795855
3.620628834 0.1848253906 -0.07369686663
3.477208853 0.1543720961 -0.1534981281
3.456721544 0.3619123697 -0.0033506623
3.482131004 0.3229436874 -0.157772392
3.620194912 0.3057552278 -0.2073875368
3.501586914 0.1706002355 0.07217893004
3.620120049 0.3607504964 0.06909929216
3.751832008 0.3612474203 -0.00275701494
3.613128424 0.1987650394 -0.2974309325
3.462390184 -0.0003862817539 0.3693757653
4.004081249 0.02960701101 0.1802643538
3.614659548 0.06556282192 -0.3436109722
3.621077776 -0.07231428474 -0.2225129008
3.755366802 0.1113913953 0.3235614896
3.883415937 0.2051376104 0.3034798801
3.883265495 0.07168339938 0.3517376781
4.007369518 -0.001433794387 0.3655075133
3.873948336 -0.06000592932 0.3621217608
3.622505188 0.07149133086 0.3403122127
3.498458862 0.0222509671 -0.1789467037
3.37248373 0.05522564799 -0.07026445866
4.006056309 0.141473189 -0.3430883586
4.127370358 0.09785825759 -0.07741965353
4.009810448 0.1569599956 0.0988060683
4.131858349 -0.04666024446 -0.1063163728
3.883544683 0.3617441952 -0.07461376488
3.751870155 0.3337497115 -0.141000554
4.004743099 0.007097215857 -0.3623008132
4.051519871 -0.2591477036 -0.2642817795
3.886957884 -0.3027065694 -0.2095356584
4.1398592 -0.1131882071 0.02045940422
4.126005173 -0.2271451205 -0.06351072341
3.752491713 0.1611832976 -0.3367604911
3.749698162 -0.2735821307 -0.180829674
3.88354826 -0.2041305602 -0.309012115
3.371235371 -0.2861270607 -0.1978695095
3.380572557 -0.2524553537 -0.05393719673
3.493270159 -0.3467098773 -0.1563621759
3.489269257 -0.1731592417 -0.1464001536
3.369916677 -0.1021765843 -0.1324334443
3.361545324 -0.08981714398 -0.352655828
3.499314547 -0.1217878088 -0.3340887725
3.497548103 0.3397599161 0.1381579936
3.47815752 -0.2505749166 0.2508822083
3.3616364 -0.2337082326 0.1433821023
3.370560646 -0.06871642917 0.252636224
3.64066577 -0.06177094206 0.3577993214
3.501832962 -0.2608842552 -0.266517669
3.502761602 0.04308666289 -0.3605641127
3.367225885 0.1065153927 0.005502523389
3.628815174 -0.2096199393 0.2967191339
3.62024498 -0.3617390096 0.06909967214
3.492119789 -0.3713643253 -0.007054984104
3.489887953 -0.3406397402 0.1280905306
4.004564285 -0.338917613 0.1602028608
4.126694202 -0.1788579375 0.1521641612
3.888891697 -0.3582018018 -0.07548381388
4.041054726 0.3720936477 -0.002060316969
3.88346982 0.3617438078 0.06909929216
4.076067924 -0.3748287857 -0.001386062359
4.128119469 0.07049079239 -0.3469388485
4.128937244 -0.03862981871 -0.2641827762
4.008891106 0.1415032893 0.3361614645
3.620205402 -0.3617429435 -0.07461749762
3.620060205 0.2041444033 0.3034798801
3.883547306 0.30674842 -0.2073875368
3.620193243 0.360751003 -0.07461376488
3.375145435 0.1834451407 0.142144978
3.475331783 0.1887006015 0.3256025314
3.620011568 0.3057467639 0.201871857
3.349015236 0.1901929975 -0.09953835607
3.752337694 0.2771479785 0.185191825
[...]
CELL_DATA 1169
SCALARS TALLY_TAG double 1
LOOKUP_TABLE default
0.2430007311 
0.2798997778 
0.2149606869 
0.2155412959 
0.2848808584 
0.2761012045 
0.2544932299 
0.2340101555 
0.2457663945 
0.2273846728 
0.2291983649 
0.244558274 
0.2424732983 
0.3059072028 
0.2131251074 
0.215756555 
0.2435684478 
0.2380244457 
0.214861107 
0.2149377684 
0.2032381383 
0.216924412 
0.2196413907 
0.2561258541 
0.241438198 
0.2260176127 
0.2233824454 
0.2414300816 
0.2400688851 
0.2705260814 
0.2260281718 
0.2357263958 
0.1893059262 
0.2124148032 
0.2166374822 
0.1975121597 
0.3186411391 
0.2318682098 
0.2345361031 
0.2548109815 
0.2583888865 
0.2477258398 
0.2128591449 
0.2694698067 
0.2395772675 
0.2486737963 
0.2318804865 
0.248309334 
0.241483325 
0.2036721054 
0.2481221048 
0.2508185421 
0.2526924971 
0.2518990867 
0.259532522 
0.256156866 
0.237712111 
0.2322957312 
0.249238314 
0.20405399 
0.2381718475 
0.2368366557 
0.229854758 
0.2275565446 
0.2300904613 
0.2117132274 
0.1871079027 
0.2211384435 
0.2330709411 
0.2481695905 
0.2245215178 
0.2702745911 
0.2793117244 
0.2833068078 
0.2314177553 
0.1946417099 
0.2298000694 
0.2310596409 
0.2080886974 
0.2521635105 
0.2221234119 
0.2201297457 
0.2095304037 
0.3285973309 
0.2268537439 
0.2081986331 
0.2175425025 
0.220192819 
0.2291887594 
0.2114598428 
0.2301244953 
0.2681748396 
0.2385367313 
0.2498249725 
0.2396812103 
0.257224898 
0.2831313283 
0.2467549478 
0.2473336115 
0.255587456 
0.2839622117 
0.2544700488 
0.2355603009 
0.2776558375 
0.2706984661 
0.2641489598 
0.2429428401 
0.2642592401 
0.2118484235 
0.2806150877 
0.2457620204 
0.2676989642 
0.2882186199 
0.250363997 
0.2607939634 
0.2345576857 
0.2631595735 
0.2186456041 
0.1986003401 
0.2045568044 
0.228551205 
0.2338488058 
0.2179225303 
0.2258690789 
0.230043544 
0.2537731663 
0.257593406 
0.2691227476 
0.2860211432 
0.2789007323 
0.2208035503 
0.2149823095 
0.2116420792 
0.2321097213 
0.2081420082 
0.2135267465 
0.2072167512 
0.2163926651 
0.2126525105 
0.2071664682 
0.2571504227 
0.2432389679 
0.2734029478 
0.2088474064 
0.224086736 
0.2597455441 
0.250287429 
0.239749331 
0.2298804755 
0.2061988902 
0.2068486416 
0.2209489605 
0.2179273986 
0.2226024618 
0.2140609657 
0.2233273794 
0.2130706873 
0.2128585608 
0.2259317683 
0.2179478655 
0.2552044656 
0.2411943326 
0.2441544716 
0.2436772421 
0.2347310412 
0.2321297391 
0.2316483249 
0.235339187 
0.2512831441 
0.261658181 
0.2164857346 
0.2807818165 
0.2397827383 
0.2491905053 
0.2656955413 
0.212556452 
0.2076657291 
0.2188253414 
0.2227189628 
0.2164556551 
0.2049888211 
0.2147108915 
0.2222037922 
0.2670401236 
0.2404807679 
0.2357607629 
0.2195635653 
0.2099974287 
0.238446712 
0.2056672716 
0.2260473366 
0.2402133872 
0.2059667825 
0.2028982693 
0.2140521936 
0.2433894268 
0.2246740596 
0.2386752358 
0.2101803033 
0.2165316608 
0.2233665616 
0.2199682819 
0.2031906298 
0.2303081684 
0.2470757045 
0.2035725614 
0.2779875145 
0.2479997177 
0.2309828492 
0.2376614224 
0.2184308205 
0.2523597696 
0.2236268734 
0.2235094205 
0.2123110129 
0.2338968867 
0.2426205192 
0.2561161118 
0.2705244742 
0.2156280175 
0.2509844519 
0.2356637921 
0.2559750096 
0.2393061612 
0.2481606161 
0.2412878725 
0.1998475289 
0.293796143 
0.2276493723 
0.229124629 
0.2183856916 
0.2369991424 
0.250881803 
0.2412324941 
0.2204736867 
0.2412105751 
0.2455212052 
0.2708893099 
0.2390612275 
0.2543629878 
0.2058792669 
0.2578940807 
0.2354805706 
0.2038483658 
0.2105272359 
0.2840295696 
0.2630430766 
0.2225454224 
0.2315990337 
0.2141286364 
0.225620747 
0.234919499 
0.2311274425 
0.2349153842 
0.2269321659 
0.279560157 
0.2685011316 
0.2222360491 
0.2669079998 
0.2341781694 
0.2077659489 
0.2613586578 
0.2686103012 
0.248047409 
0.2588824108 
0.2671163842 
0.2396497762 
0.2259898394 
0.2262658448 
0.2111563918 
0.2238889933 
0.2030808838 
0.1977212113 
0.2159822938 
0.1943367947 
0.1950917255 
0.2325503956 
0.2001889277 
0.2218069058 
0.2462540666 
0.2246005102 
0.2359967472 
0.2208778735 
0.2395491799 
0.2787796043 
0.2576595392 
0.2411458963 
0.2269134441 
0.2465414845 
0.2362774839 
0.1905340406 
0.2181735886 
0.1897374876 
0.220124487 
0.2260216707 
0.2466504967 
0.2335605903 
0.2279525059 
0.2260459146 
0.2329370642 
0.2360873138 
0.2273543146 
0.2010418317 
0.2434610232 
0.1742583136 
0.1797557067 
0.2181590407 
0.2305437628 
0.2011051272 
0.203869122 
0.2203257476 
0.2351760175 
0.2801119327 
0.2609171201 
0.2376378042 
0.2445686319 
0.305628211 
0.2315431683 
0.2228565824 
0.266809684 
0.2731132696 
0.2757318292 
0.2695610806 
0.2772279151 
0.3075182155 
0.2118727228 
0.2020878414 
0.2079367015 
0.2263832066 
0.2180673316 
0.2208029896 
0.2193492907 
0.2193226282 
0.2319412178 
0.2670934328 
0.2097707016 
0.2288653642 
0.2330619363 
0.2362824298 
0.1996506295 
0.2118338257 
0.2277837444 
0.213559329 
0.1992890366 
0.193539351 
0.2180196116 
0.2308393298 
0.2234375162 
0.2282844277 
0.2109144946 
0.2763055252 
0.2548172015 
0.2555657235 
0.248097494 
0.246437789 
0.2577950307 
0.2433266966 
0.2616965268 
0.20978547 
0.2535683634 
0.2794402748 
0.2391518532 
0.23155651 
0.2180677613 
0.2412050176 
0.2040933616 
0.2238072324 
0.2794164337 
0.2506697572 
0.2845498249 
0.2612879251 
0.3050182725 
0.2556459694 
0.2625331076 
0.271600904 
0.2180929159 
0.2676642149 
0.2608575636 
0.2689417718 
0.2439332632 
0.2525494242 
0.2353550675 
0.2292087731 
0.2211598474 
0.2281794312 
0.2222115194 
0.2384290646 
0.2119192355 
0.2047485065 
0.2054857421 
0.2058231029 
0.236347001 
0.1877319286 
0.2171010515 
0.2292373582 
0.2012717272 
0.1963570181 
0.2851599481 
0.2582931394 
0.2501749619 
0.241253329 
0.2685022382 
0.2441300841 
0.2561862374 
0.2251727861 
0.2526622154 
0.2142223959 
0.2018282144 
0.2341973061 
0.2279482469 
0.2372829812 
0.2062958361 
0.2055904623 
0.2198486961 
0.2114454663 
0.2261869532 
0.2661775313 
0.251524102 
0.2811701866 
0.2306867686 
0.246454351 
0.2456145963 
0.2061949025 
0.2269100316 
0.2226451612 
0.236098534 
0.1870834548 
0.2191489177 
0.2047424885 
0.2441102013 
0.3110776887 
0.283006382 
0.2271483996 
0.2319237142 
0.2355657441 
0.2487174259 
0.2405580419 
0.2446856385 
0.2551441873 
0.2449596708 
0.2217761049 
0.2834866836 
0.3268239239 
0.210408542 
0.2450842593 
0.2495448368 
0.2699639045 
0.2012261631 
0.1999557568 
0.2683733625 
0.2869300725 
0.207657679 
0.2156069244 
0.2061382609 
0.2143346414 
0.2782696994 
0.2724964381 
0.2349841515 
0.2652982115 
0.2674259496 
0.2575253693 
0.2317837237 
0.2611239723 
0.2293714149 
0.2567292131 
0.2288711437 
0.2429784006 
0.2581143972 
0.2344999568 
0.2595174891 
0.2620433951 
0.2490023941 
0.3075182957 
0.2652393332 
0.2518836026 
0.2291505727 
0.2316325993 
0.2363931751 
0.2304738491 
0.2301650601 
0.2511806003 
0.2484495417 
0.2718875313 
0.2678601439 
0.2667869492 
0.2535390085 
0.3079178414 
0.227393049 
0.2319580628 
0.2375825507 
0.2931997668 
0.2604857911 
0.2188592996 
0.2454853361 
0.217708285 
0.2333536836 
0.2258397775 
0.2460492959 
0.2242092555 
0.2181560208 
0.2612046453 
0.2363752956 
0.2615132677 
0.2342123747 
0.2191079248 
0.2049787331 
0.2378517138 
0.2114422302 
0.2197853585 
0.2164572058 
0.2167166229 
0.2328613659 
0.2616878889 
0.2711610736 
0.2439804381 
0.227340482 
0.2361588722 
0.2288915285 
0.2759201643 
0.2254394384 
0.2249624109 
0.2799503175 
0.2390421044 
0.2452622658 
0.2521636077 
0.248286052 
0.2315413438 
0.2078858184 
0.2038926028 
0.2332561577 
0.2089719579 
0.2385748539 
0.2291909328 
0.2655848944 
0.2536651599 
0.1994616467 
0.2037516448 
0.2358616907 
0.2025587378 
0.2151798316 
0.2157801247 
0.225337398 
0.1821408852 
0.2188402914 
0.2378517701 
0.2155270534 
0.2126940909 
0.220248205 
0.2018612062 
0.205717397 
0.2276063718 
0.2129870154 
0.2658343003 
0.2476739333 
0.2420334709 
0.2833585765 
0.3018108577 
0.2016017515 
0.2149606947 
0.2315954225 
0.2154284953 
0.2138255993 
0.2106251803 
0.250478385 
0.2261707144 
0.2081202888 
0.2491144463 
0.2150712698 
0.2126230898 
0.1807533218 
0.2102792862 
0.243498825 
0.2028508896 
0.2426828768 
0.2561345572 
0.2530120668 
0.2321731753 
0.2461959083 
0.2576572706 
0.2540037592 
0.1978482431 
0.2050984074 
0.2016189227 
0.2165587279 
0.2362004379 
0.2558651948 
0.2558631261 
0.2402599813 
0.2268375941 
0.2287285038 
0.2567628961 
0.2420117053 
0.2586784301 
0.2211272341 
0.2594308793 
0.2581691924 
0.2146724018 
0.2090472304 
0.2287688695 
0.2067708499 
0.2010844539 
0.2091201805 
0.2152046734 
0.2637402227 
0.2033512564 
0.1865843332 
0.1933677473 
0.2144887216 
0.1905664057 
0.2163861777 
0.2369734462 
0.2040476189 
0.2117483077 
0.2145931459 
0.2731526668 
0.2173634955 
0.2354554757 
0.2721569158 
0.2317142341 
0.2317151068 
0.2369833215 
0.236429792 
0.2909306736 
0.285863673 
0.2819864556 
0.2708507086 
0.2104051322 
0.2069505801 
0.2397046997 
0.2635621954 
0.2051584788 
0.2307631438 
0.2495563425 
0.2061661433 
0.2581519301 
0.2169691128 
0.2770531625 
0.2144870548 
0.2347446694 
0.247358768 
0.1896374305 
0.2102393301 
0.238172115 
0.2138052837 
0.2183159011 
0.2343741089 
0.2410315465 
0.2341906204 
0.2538940271 
0.2197082948 
0.1996577257 
0.2266711257 
0.2237183958 
0.2293889004 
0.2357662925 
0.2066078146 
0.2423878494 
0.2105959165 
0.2810024082 
0.2030767837 
0.2294882649 
0.212965673 
0.211901378 
0.2165103629 
0.2395570184 
0.232903617 
0.2085640375 
0.2290197014 
0.2357874047 
0.2302415559 
0.2436546169 
0.2580374517 
0.1998414742 
0.2426689655 
0.2478133194 
0.2214083879 
0.2319220211 
0.2323860002 
0.2295201878 
0.2433350523 
0.2214280335 
0.2553259922 
0.2582738005 
0.2233099344 
0.2938242375 
0.2348838018 
0.2374625476 
0.1798284242 
0.2349337778 
0.1974397076 
0.2111032735 
0.1974694889 
0.2157476546 
0.195014269 
0.2210248435 
0.2185425085 
0.2515778434 
0.2676402968 
0.2361796632 
0.2381633509 
0.2405252071 
0.2618457565 
0.2513596974 
0.2549064139 
0.2242946283 
0.216957372 
0.2422700866 
0.2156630391 
0.2391267689 
0.2543890089 
0.2488029038 
0.2756461929 
0.2409254989 
0.2223199042 
0.2330072669 
0.223303192 
0.2383769209 
0.2251995491 
0.2138991607 
0.2663112706 
0.2556167257 
0.2418754486 
0.2493483439 
0.2752862874 
0.2410513187 
0.2788592541 
0.2502533833 
0.2196301215 
0.2088858438 
0.2116582715 
0.2264389142 
0.2626429344 
0.2697548608 
0.2254555614 
0.2603011205 
0.2411089166 
0.2840755738 
0.2117980113 
0.2413025056 
0.246439833 
0.233908049 
0.2274622045 
0.218868062 
0.224090705 
0.2204889922 
0.2180980983 
0.2192158698 
0.2334796955 
0.2350335689 
0.2413136467 
0.2371991425 
0.2364346643 
0.2518619449 
0.202109369 
0.212714796 
0.2106569938 
0.2049085012 
0.2242540291 
0.2690000241 
0.233503273 
0.2485250845 
0.2366763472 
0.256194737 
0.2174209004 
0.2692746614 
0.2361314086 
0.2532351662 
0.2381482624 
0.2385953917 
0.2463882229 
0.2121240456 
0.2793613485 
0.2791609585 
0.2799281535 
0.2447352776 
0.2675716727 
0.3094435629 
0.2998364332 
0.2988052496 
0.2347434139 
0.2241717015 
0.2679304022 
0.3089665049 
0.2541831493 
0.2190974851 
0.2370193997 
0.2072486166 
0.2830102634 
0.2161395464 
0.2224594439 
0.2240713578 
0.2131366621 
0.2166940134 
0.2212565235 
0.2312384391 
0.2465326177 
0.2141986111 
0.2232826018 
0.2382017862 
0.2121690314 
0.211713184 
0.2058026955 
0.2255796886 
0.2124763273 
0.2172853261 
0.2722933945 
0.2205923956 
0.1964414777 
0.2746381159 
0.2575528754 
0.2203436571 
0.2091595452 
0.2330120609 
0.2205788335 
0.1978823972 
0.2099973752 
0.2653820466 
0.2569486291 
0.2458401936 
0.2544892449 
0.2178353545 
0.3130966103 
0.231049698 
0.2211184854 
0.2253984692 
0.2466937533 
0.2087811514 
0.2715713943 
0.2775185465 
0.2609197027 
0.2689767279 
0.2576012706 
0.2540257988 
0.2354043543 
0.2113365401 
0.2050713075 
0.2079341216 
0.2161702964 
0.213799513 
0.2266305618 
0.2578259343 
0.1964063618 
0.1917097925 
0.234148391 
0.2091769995 
0.2356870855 
0.1920310239 
0.2324819855 
0.2217981645 
0.23724925 
0.1912991399 
0.2300697574 
0.2434656128 
0.23497648 
0.2607286693 
0.2460561118 
0.2802315341 
0.2624336577 
0.2987761788 
0.2314511072 
0.2862550689 
0.2239329005 
0.2898192157 
0.2796949297 
0.2485676929 
0.265305323 
0.2288357686 
0.2927844903 
0.3060641696 
0.2677780754 
0.2234201713 
0.2660883314 
0.2496296899 
0.2775950824 
0.2752895362 
0.225100359 
0.1946578207 
0.2495349965 
0.2859831898 
0.3023261271 
0.3163394144 
0.3102620442 
0.2728404805 
0.2594549879 
0.2564112295 
0.2654401433 
0.2817862015 
0.2975029014 
0.3132243631 
0.2685607992 
0.2682731341 
0.2252387846 
0.3160738559 
0.2044306019 
0.2576035927 
0.2328586151 
0.2238153432 
0.200418219 
0.2988636027 
0.2895144175 
0.2392292534 
0.2293428144 
0.2470910244 
0.2531945708 
0.2623484349 
0.2900884919 
0.2517840734 
0.3300132068 
0.2816993197 
0.2246440291 
0.2687636655 
0.260389952 
0.2221940911 
0.2660879226 
0.2393418928 
0.2706773611 
0.2991073282 
0.2661232584 
0.2660611526 
0.2234579385 
0.2690962751 
0.2238268251 
0.2931032156 
0.2454755142 
0.2444365732 
0.2433279356 
0.2584156982 
0.2549022781 
0.2870950188 
0.2290131149 
0.2321776607 
0.2514445541 
0.2474954839 
0.2289499563 
0.2159828254 
0.3057253623 
0.2460008471 
0.2424511371 
0.2453979064 
0.2248668208 
0.2465762992 
0.2393485399 
0.240343912 
0.2342958025 
0.2297643508 
0.2174077912 
0.2673649384 
0.2274543048 
0.2626002867 
0.2689062335 
0.2596025558 
0.2515322523 
0.2158215303 
0.2639475036 
0.2334030351 
0.268213615 
0.2323578475 
0.2045128974 
0.2119600574 
0.2352263192 
0.2712401386 
0.2766620572 
0.2834808112 
0.2309539292 
0.2452668454 
0.203041191 
0.2322400206 
0.2282816629 
0.2549434493 
0.2367662716 
0.2907441004 
0.2367162043 
0.2926372364 
0.2441909537 
0.2207312616 
0.2605501222 
0.2385637327 
0.2746089457 
0.2757549037 
0.229502598 
0.2380363382 
0.26205681 
0.2444037469 
0.2338011879 
0.1933970347 
0.2421968394 
0.2444253587 
0.2281147189 
0.2374547993 
0.2612180095 
0.2341645091 
0.1946081208 
0.2390342817 
0.2658753919 
0.2412324712 
0.3050172935 
0.264518769 
0.2399863484 
0.2261279821 
0.2302384123 
0.260930578 
0.2693339202 
0.250013274 
0.2661842889 
0.2396734447 
0.2455684272 
0.2231026737 
0.2383964808 
0.220204651 
0.2401741402 
0.2110164333 
0.208747499 
0.2397832278 
0.2482841862 
0.2298047499 
0.2275602715 
0.2273559212 
0.2190408872 
0.2478803719 
0.2284214755 
0.2615471337 
0.2661655909 
0.207334155 
0.1986491522 
0.2813222144 
0.267721594 
0.228609374 
0.2087535883 
0.2862121484 
0.3063320984 
0.2611289434 
0.208376901 
0.263363038 
0.2361790318 
0.2750830574 
0.2490112226 
0.1871991866 
0.2971450892 
0.2232230678 
0.2732429901 
0.2627526824 
0.2373777139 
0.2220146194 
0.23792303 
0.2098243908 
0.2178835323 
0.2108877621 
0.2790620498 
0.2116025435 
0.2515503345 
0.2228840954 
0.2217681089 
0.2509681224 
0.2570433125 
0.2644980371 
0.2153879118 
0.2246984941 
0.260580137 
0.2424381232 
0.2278278708 
0.2031551305 
0.2317472468 
0.22089153 
0.2349026475 
0.2233334475 
0.236838991 
0.2496487172 
0.2529468951 
0.2542376687 
0.2167690458 
0.312376512 
0.1990763356 
0.2193690395 
0.3046502119 
0.2757005172 
0.2748870165 
0.2628717389 
0.2386743976 
0.2514261057 
0.2691772663 
0.2311804188 
0.1956023718 
0.2764782137 
0.2688016868 
0.2100920191 
0.252027504 
0.2621179343 
0.2419130885 
0.2817481847 
0.2529163974 
0.2314298894 
0.2446609803 
0.2628026417 
0.2278173615 
0.2336617257 
0.2450354877 
0.2302167687 
0.2623128605 
0.2549282412 
0.2615952514 
0.223346973 
0.1945807455 
0.2054606048 
0.246673319 
0.2613724231 
0.2165362537 
0.2107902778 
0.2145687018 
0.2276298273 
0.2377250002 
0.2160590725 
0.2129688696 
0.2793256732 
0.2402364825 
0.1891760852 
0.2132187002 
0.2080553158 
0.2525460623 
0.2274141966 
0.2179257195 
0.2259740688 
0.25097096 
0.2400190472 
0.2363433386 
0.2034037593 
0.2586478914 
0.220562953 
0.2228171291 
0.2497075812 
0.2161739968 
0.2087753787 
0.2687431775 
0.2636544088 
0.2522961445 
0.3115386132 
0.2224418037 
0.274166348 
0.2712557926 
0.229717969 
0.2981403257 
0.235587515 
0.2524908494 
0.2386875669 
0.2392005797 
0.2354309201 
0.2377648441 
0.2250997213 
0.2966666507 
0.2385808861 
0.2287080767 
0.2075079448 
0.1934814274 
0.2872200578 
0.2646676645 
0.2497158491 
0.2172997069 
0.2521612625 
0.2036457317 
0.2646028417 
0.256750204 
0.2319245758 
0.2000285389 
0.2789386927 
0.2479659299 
0.2901907975 
0.2699615837 
0.3077095873 
0.1922791673 
0.2273686398 
SCALARS ERROR_TAG double 1
LOOKUP_TABLE default
0.06193229471 
0.0622971416 
0.07060793448 
0.07689963632 
0.07132424325 
0.07132210667 
0.06873084872 
0.07470236546 
0.06878010367 
0.0625561732 
0.06531231476 
0.06783704132 
0.06061029474 
0.05778261489 
0.06585748251 
0.06290692446 
0.06614258257 
0.06816724852 
0.07841495477 
0.07318021217 
0.07763507948 
0.0727668177 
0.06786183134 
0.0698128895 
0.06755318636 
0.06349823545 
0.06104735049 
0.06217146837 
0.06328002011 
0.06044929153 
0.07038384597 
0.05285047092 
0.06837661747 
0.07270884898 
0.07005965563 
0.06971108737 
0.05259486404 
0.06088721776 
0.0649895619 
0.05981125837 
0.06758372259 
0.05714454568 
0.07075145172 
0.05978500955 
0.06376611626 
0.06390380294 
0.06727313846 
0.06148319183 
0.06513416977 
0.07784608764 
0.07373560975 
0.06114156174 
0.0599759154 
0.05472846694 
0.06433748041 
0.05748824786 
0.06302086478 
0.0591998298 
0.07042512646 
0.07548094053 
0.05473538786 
0.06293425333 
0.06403347426 
0.07672520917 
0.06911995293 
0.06732619211 
0.08068345885 
0.07347601451 
0.07804817612 
0.06058435372 
0.06165165744 
0.05933192657 
0.06836426934 
0.06878921046 
0.07377340283 
0.06631281209 
0.05939634583 
0.07568824968 
0.0716180308 
0.06155774642 
0.07470474849 
0.0739053137 
0.07435078073 
0.05189234584 
0.06768636643 
0.07517615818 
0.08123843814 
0.06604235049 
0.06406324943 
0.07167904895 
0.06510012306 
0.05879801677 
0.06464630664 
0.06579745532 
0.07630572301 
0.06530557017 
0.06874616627 
0.05837077921 
0.0713407121 
0.06351739148 
0.05764979911 
0.06395785758 
0.06829064993 
0.06556797272 
0.06392788098 
0.07579458901 
0.06063214909 
0.06729374188 
0.06540782918 
0.06064591092 
0.06720970009 
0.06578261287 
0.06096888287 
0.06572847674 
0.06444636402 
0.07577354813 
0.06690205766 
0.07225224727 
0.07457858236 
0.07064971673 
0.06748026927 
0.06890549324 
0.06984118855 
0.07117982931 
0.06923884572 
0.0689551875 
0.05904483966 
0.07296799964 
0.05935373046 
0.06826628263 
0.0667090595 
0.0656145086 
0.07095083913 
0.05484346515 
0.06901060366 
0.07420075701 
0.08057507383 
0.07036109107 
0.06137279122 
0.06824401868 
0.06770216462 
0.06958086567 
0.0641261254 
0.06694648698 
0.06246071449 
0.05743117014 
0.06205957443 
0.0540156764 
0.06881513389 
0.06108782788 
0.0798080299 
0.06811786351 
0.08621664065 
0.06944766118 
0.07173323585 
0.07250822989 
0.06853405691 
0.07640979027 
0.05961926603 
0.06251062284 
0.07481152251 
0.0552686081 
0.05923345474 
0.06050814074 
0.05625285786 
0.07675935258 
0.06832723505 
0.07090404678 
0.07406153485 
0.06261422006 
0.06604320978 
0.07259840989 
0.06533146835 
0.06437097229 
0.06805673406 
0.06813089211 
0.06805456691 
0.06638522305 
0.08105866113 
0.0751022787 
0.07307396475 
0.05976530393 
0.07888074762 
0.0608434593 
0.06296268241 
0.06941397584 
0.05936147413 
0.06529439301 
0.06492210562 
0.07106320145 
0.06531234442 
0.07334644633 
0.08006651408 
0.08073723242 
0.07341578649 
0.06490481782 
0.07190473419 
0.08698449881 
0.07689989743 
0.07401611037 
0.06947948685 
0.06472730401 
0.07642065099 
0.07065710114 
0.07616194492 
0.06581878662 
0.07055431847 
0.06710096225 
0.07313596959 
0.07436951295 
0.07108496282 
0.07642989183 
0.06189518381 
0.06716969629 
0.07894171807 
0.06905696439 
0.07196199417 
0.06364754352 
0.06984468798 
0.06728185568 
0.07159215311 
0.07210391093 
0.0692218027 
0.05554514952 
0.05997491199 
0.06309759689 
0.07773113534 
0.05742867252 
0.07266695997 
0.05324774856 
0.06232953073 
0.07573103206 
0.07104019506 
0.07058287231 
0.06888437878 
0.06757587537 
0.06801504499 
0.06161223344 
0.07457150973 
0.0653761193 
0.0757802141 
0.05956888388 
0.07192630987 
0.08620609242 