# vtk DataFile Version 3.0
MOAB 4.9.0
ASCII
DATASET UNSTRUCTURED_GRID
POINTS 258 double
0.75 6.123233996e-17 -0.5
0.7880602337 0.1913417162 -0.5
0.8964466094 0.3535533906 -0.5
1.058658284 0.4619397663 -0.5
1.25 0.5 -0.5
1.441341716 0.4619397663 -0.5
1.603553391 0.3535533906 -0.5
1.711939766 0.1913417162 -0.5
1.75 0 -0.5
1.711939766 -0.1913417162 -0.5
1.603553391 -0.3535533906 -0.5
1.441341716 -0.4619397663 -0.5
1.25 -0.5 -0.5
1.058658284 -0.4619397663 -0.5
0.8964466094 -0.3535533906 -0.5
0.7880602337 -0.1913417162 -0.5
0.75 6.123233996e-17 0.5
0.7880602337 -0.1913417162 0.5
0.8964466094 -0.3535533906 0.5
1.058658284 -0.4619397663 0.5
1.25 -0.5 0.5
1.441341716 -0.4619397663 0.5
1.603553391 -0.3535533906 0.5
1.711939766 -0.1913417162 0.5
1.75 -1.224646799e-16 0.5
1.711939766 0.1913417162 0.5
1.603553391 0.3535533906 0.5
1.441341716 0.4619397663 0.5
1.25 0.5 0.5
1.058658284 0.4619397663 0.5
0.8964466094 0.3535533906 0.5
0.7880602337 0.1913417162 0.5
0.9722082135 0.4157303493 0.002296580092
1.152450547 0.4903917864 0.00243671323
1.347540777 0.4903935121 0.00253689464
1.527781394 0.4157372936 0.002540114026
1.665732365 0.2777887698 0.002540521497
1.740391794 0.09754941354 0.002540579871
1.740393466 -0.09754100763 0.002540643512
1.665737003 -0.2777818287 0.002541001128
1.527787733 -0.4157330576 0.002543068742
1.347545968 -0.4903924797 0.002554350711
1.152448599 -0.490391399 0.002612630707
0.9722201298 -0.4157383116 0.002659192129
0.8342709044 -0.2777936628 0.002689742991
0.8342762402 0.2778016478 0.002359346965
0.7596088407 0.09755260587 0.002563573088
0.7596142352 -0.09757971952 0.002712426452
0.8964471582 -0.3535539394 0.169090351
1.058663292 -0.4619418409 0.1690820167
1.250009541 -0.4999999999 0.1688957248
1.441350691 -0.4619360485 0.1688903664
1.60356038 -0.3535464012 0.1688897185
1.711943572 -0.1913325285 0.1688896432
1.75 9.972457277e-06 0.1688896315
1.71193593 0.1913509782 0.1688896009
1.60354616 0.3535606212 0.1688893733
1.441331514 0.4619439922 0.1688876413
1.249985613 0.4999999998 0.1688744265
1.058632336 0.4619290173 0.1687731682
0.8964595669 0.3535663476 0.1687526974
0.7880633942 0.1913493459 0.16876169
0.7880830198 -0.1913967174 0.1690585053
0.7500000017 4.104430722e-05 0.1687606598
0.8964359774 0.3535427582 -0.1641581878
1.058680855 0.461949115 -0.1639166172
1.250000041 0.5 -0.1638204064
1.441341702 0.4619397721 -0.1638202976
1.603553374 0.353553407 -0.163820282
1.71193976 0.1913417306 -0.163820278
1.75 -1.936919254e-08 -0.1638202673
1.71193971 -0.1913418517 -0.1638202033
1.603552973 -0.3535538087 -0.1638198145
1.44133981 -0.4619405557 -0.1638175475
1.249993621 -0.5 -0.1638055821
1.058644695 -0.4619341372 -0.1637565681
0.8964527483 -0.3535595294 -0.1637249798
0.7880672981 -0.1913587702 -0.1637004475
0.7880622009 0.1913464652 -0.1638421455
0.7500000006 -2.470078979e-05 -0.1635904718
0.8342378247 -0.2777441513 0.3349063075
0.9722624507 -0.4157665856 0.3345654839
1.152467649 -0.490395188 0.3343857138
1.347557971 -0.490390092 0.3343857138
1.527795976 -0.4157275499 0.3343857138
1.665742062 -0.277774257 0.3343857138
1.740395188 -0.09753235154 0.3343857137
1.740390092 0.09755797022 0.3343857131
1.66572755 0.2777959763 0.3343857084
1.527774248 0.415742068 0.3343856741
1.347532276 0.4903952031 0.334385439
1.152441606 0.4903900078 0.3343839095
0.9722022978 0.4157263964 0.3343745904
0.8342532871 0.2777672959 0.3343234579
0.7596005061 0.09751069872 0.3340994152
0.7595989028 -0.09750263527 0.3337582249
0.8342651938 0.2777851165 -0.3310517811
0.9722148835 0.4157348062 -0.3310517811
1.152454839 0.4903926402 -0.3310517811
1.347545161 0.4903926402 -0.3310517811
1.527785117 0.4157348062 -0.3310517811
1.665734806 0.2777851165 -0.3310517811
1.74039264 0.09754516101 -0.3310517811
1.74039264 -0.09754516101 -0.3310517811
1.665734806 -0.2777851165 -0.3310517811
1.527785117 -0.4157348062 -0.3310517811
1.347545161 -0.4903926402 -0.3310517811
1.152454839 -0.4903926402 -0.3310517811
0.9722148835 -0.4157348062 -0.3310517811
0.8342651938 -0.2777851165 -0.3310517811
0.7596073598 -0.09754516101 -0.3310517811
0.7596073598 0.09754516101 -0.3310517811
0.9536465472 0.04618786222 -0.5
1.00287455 0.2416448663 -0.5
1.190365112 0.2954670438 -0.5
1.383106432 0.3225470908 -0.5
1.504232255 0.1690736851 -0.5
1.600783524 0.0003851645617 -0.5
1.50579138 -0.1709888883 -0.5
1.385834781 -0.324582301 -0.5
1.194869128 -0.3031155981 -0.5
1.038880947 -0.2748242166 -0.5
0.9240148157 -0.1469191159 -0.5
1.139128631 0.1028748785 -0.5
1.31529403 0.1472092839 -0.5
1.416993544 -0.002601132257 -0.5
1.313355166 -0.1522756309 -0.5
1.117640405 -0.1046363503 -0.5
1.260482355 -0.00188579022 -0.5
0.969544267 -0.103031765 0.5
1.11902354 -0.2965865035 0.5
1.32262545 -0.2845687188 0.5
1.506250096 -0.2467481756 0.5
1.558201407 -0.06487002854 0.5
1.574801536 0.1288009835 0.5
1.419750895 0.247321626 0.5
1.248790887 0.3453820353 0.5
1.07741235 0.2512011627 0.5
0.9282526776 0.1271648905 0.5
1.221177455 -0.0781489964 0.5
1.402438241 -0.1260788355 0.5
1.403397072 0.0425552318 0.5
1.243096877 0.1463726497 0.5
1.087896725 0.06871158831 0.5
1.110726237 -0.1783854812 -0.1260688305
1.180900335 -0.3617390096 -0.1297549456
1.302721381 -0.1607831717 -0.1299756616
1.184965253 -0.3269213736 0.002600036561
1.114776492 -0.3375417292 -0.2453646511
1.254750609 -0.2222499549 -0.254684031
1.084648371 -0.1436516047 -0.2568347454
0.998393774 -0.2515693009 -0.2562094927
0.9526141286 -0.2004665136 -0.1247095764
1.12373817 -0.07533164322 -0.002670465037
0.979182303 -0.2527414262 0.001116487081
1.219668746 -0.04329782352 -0.1416324526
1.031049967 -0.03462633491 -0.2507101893
1.463059783 -0.09295804054 -0.3751334548
1.519749522 -0.2560150921 -0.2535970211
1.393609524 -0.191325292 -0.2536425889
1.450686216 -0.2911351323 -0.3778195977
1.55961442 0.09058718383 -0.3819922507
1.356383681 0.06429852545 -0.381075114
1.59715724 -0.08332540095 -0.3682122529
1.333341956 -0.2570513487 -0.3786284328
1.323739409 -0.09982158989 -0.3810746074
1.107296467 0.05778951943 0.04625948519
1.057627559 0.2895126641 0.03894719109
1.295029283 0.1111242175 0.004043503664
1.169355392 0.1296989918 -0.1344429255
1.258823991 -0.02876117453 -0.2584091425
1.045685053 0.1115376875 -0.2573685348
1.318246722 -0.3663766682 0.0810123235
1.324617505 -0.3617429435 -0.1297946572
1.435194612 -0.2771610022 0.002501917304
1.448141694 0.2912281156 -0.376187861
1.28753078 -0.2363646626 0.1632636636
1.05249393 -0.3068859875 0.1630217731
1.370385051 -0.3382346928 0.2756128609
1.555957556 -0.2028077841 -0.1285487562
1.470716238 -0.04473161697 -0.1297172755
1.33716619 -0.08671892434 0.002611289965
0.9178019166 0.1779746115 -0.3044440746
1.409392238 0.006994291674 -0.2486784011
1.405454278 0.1709344238 -0.1300458312
1.315573335 0.1418387443 -0.2606957257
1.208310246 0.2358512431 -0.2573568225
1.048128247 0.3057467639 -0.1299884915
1.189681768 0.3544258475 -0.1251629442
0.9465200901 0.2041444033 -0.1299400032
1.559008718 0.2041358054 -0.1298048943
0.9063692093 0.06386609375 -0.1214637384
1.11289835 0.07646874338 0.2368118316
1.230427623 -0.06584890187 0.2450127602
1.1250844 0.2058719844 0.1277487427
0.9757316709 0.2057674229 0.1408175975
1.234740853 0.1076816991 -0.3773338497
0.9423919916 0.1302056462 0.002500652801
1.307900429 0.3189432919 0.014257906
1.332107902 0.3637795448 -0.1379605532
1.545316339 -0.1836313903 0.2748921216
1.141560793 0.02025646344 -0.377948761
1.198088408 -0.1004378721 -0.3843638003
1.457392097 -0.3067452013 -0.1298030615
1.579908967 -0.1344098002 -0.2470857203
1.393692374 -0.3407376111 -0.2523858845
0.9925704598 -0.07078426331 -0.3809494972
0.9109605551 -0.1435008198 -0.2568955719
0.8823785186 -0.06175342947 0.2755190432
1.107759356 -0.2652493715 -0.3863215744
1.433598161 0.1606344134 -0.3176989853
1.323204875 0.2314005941 -0.3767154813
1.393694043 0.339744091 -0.252387464
1.513170719 0.2599122524 -0.252387464
1.593002558 0.1404356062 -0.252387464
1.485204101 0.2051517814 0.007528511342
0.8806242943 -0.0003862817539 -0.2876097858
1.089953184 0.3385726213 -0.2503696978
1.097685695 0.1805505008 -0.3752900362
1.279925466 0.1956330538 0.1856170446
1.024204493 0.2782453895 0.2797117531
1.094741464 -0.02633588016 0.359169066
1.02127564 -0.1357502192 0.172901988
1.150694132 0.1877027154 0.3631866574
1.25400877 0.06956776232 0.3707508147
0.8926460147 0.04558301717 0.139582634
0.9150899649 -0.08285105228 0.01866657659
1.45169723 -0.0904860273 0.183638975
0.8871197701 0.1422901452 0.2529987395
1.251380801 0.3743831515 -0.3230782151
1.448141813 0.2943475842 0.1189035922
1.408147931 0.131603092 0.2450286895
1.255379677 -0.3677121699 -0.2590662837
1.612716913 0.003341748146 -0.2511408031
1.415024281 -0.2347097844 0.3929045498
1.576917887 0.06502569467 0.002569311066
1.6140064 0.07136286795 -0.1298047751
1.455141664 0.299726963 -0.1241403967
1.614007592 -0.07234994322 -0.1298047751
1.544225335 -0.09754872322 0.002575000981
0.8947383761 -0.07792990655 -0.1320438683
1.054858088 -0.311914295 -0.1265496314
1.519383192 0.2432414293 0.3863367438
1.487622976 0.007540776394 0.3756693006
1.615386844 0.1126664355 0.2205646038
1.44007194 0.3188075125 0.275698334
1.349395394 0.1794255376 0.3748820722
1.169570088 0.3542713225 0.1253354698
0.9663605094 0.09014400095 0.318944186
1.151343107 -0.2010613531 0.3283568025
1.35607779 -0.08318732679 0.3707523346
0.9927636385 -0.2043811679 0.3867866397
1.561081648 0.1972554475 0.1491530538
1.558960676 -0.2298330963 0.1220229268
1.615685821 -0.09288331121 0.1220226735
1.278325319 0.3606494665 0.3337435126
1.314012647 0.3798172474 0.1701941043
1.180632591 -0.3664267361 0.3194567859
CELLS 1041 5205
4 144 145 146 147
4 144 145 148 149
4 144 150 151 152
4 144 150 148 151
4 144 153 152 154
4 144 149 148 150
4 144 155 150 156
4 144 146 149 155
4 157 158 159 160
4 125 157 161 162
4 117 161 157 163
4 126 164 157 165
4 117 157 118 163
4 125 126 157 165
4 166 167 168 169
4 156 169 170 171
4 147 172 173 174
4 41 173 172 174
4 51 41 172 174
4 6 116 101 175
4 50 176 172 177
4 147 172 176 177
4 50 41 147 172
4 50 41 42 147
[...]
POINT_DATA 258
SCALARS KDE_TALLY_TAG double 1
LOOKUP_TABLE default
0.9173739955 
0.9004149922 
0.8670423779 
0.8354360394 
0.8205521135 
0.780361505 
0.7311381499 
0.6824205418 
0.6705033903 
0.6899182041 
0.7019833871 
0.7740153547 
0.7878339095 
0.8478424796 
0.8782652155 
0.8881796618 
0.9026184117 
0.8964745852 
0.8875469395 
0.8291279463 
0.7912977912 
0.7603919172 
0.7171724682 
0.6803643486 
0.6837496775 
0.7159499197 
0.7040294841 
0.7393685977 
0.7918476947 
0.8558357377 
0.864920778 
0.8978748178 
0.7537561023 
0.7143054365 
0.6758192444 
0.6323951166 
0.6150061352 
0.6272868028 
0.6033060416 
0.6045876171 
0.6533098438 
0.679300713 
0.7303061463 
0.7653960259 
0.7600809386 
0.8011442102 
0.79589272 
0.7867828862 
0.7516391114 
0.7327622957 
0.6958907486 
0.6596722264 
0.6396084368 
0.6068204461 
0.620440434 
0.6239896541 
0.6127706847 
0.6491648214 
0.7113754394 
0.7336970761 
0.7633492993 
0.8027365743 
0.7684556679 
0.8368307216 
0.8034868078 
0.7479409967 
0.7009142471 
0.654606217 
0.6624972306 
0.6045590904 
0.6298375476 
0.6222461802 
0.6596710589 
0.6885286979 
0.7375298889 
0.7785966437 
0.8006739322 
0.8150593125 
0.7742480383 
0.8140510145 
0.7798205078 
0.7764253631 
0.7335591981 
0.6954444767 
0.6521235029 
0.6456296513 
0.6314970942 
0.6293632682 
0.6552342953 
0.6610793846 
0.7076030409 
0.7123670635 
0.7611097616 
0.8284878342 
0.8139941287 
0.7715735542 
0.7992598755 
0.7894642015 
0.7267714704 
0.6811231846 
0.6596745278 
0.6361366407 
0.6173692732 
0.6460384845 
0.6203012057 
0.6823615771 
0.7226487766 
0.7592389786 
0.7877256333 
0.7889252361 
0.8282674755 
0.8131037139 
0.7359415436 
0.7254897882 
0.7072541788 
0.6730680761 
0.629618799 
0.6326243591 
0.645015212 
0.6634778423 
0.7149431527 
0.7300404625 
0.730672037 
0.7120359808 
0.6786878739 
0.6518181574 
0.6729186894 
0.679242387 
0.6999571488 
0.7159651197 
0.7027870876 
0.6575490778 
0.6395497079 
0.6239711828 
0.6325378745 
0.6405864972 
0.6800035399 
0.703231307 
0.7283157303 
0.6266072938 
0.6118145622 
0.6506381695 
0.6835637972 
0.6793560405 
0.6020642036 
0.5979393272 
0.5583507831 
0.5593061835 
0.6025344895 
0.559035273 
0.5797218264 
0.6135818461 
0.6226238624 
0.5831388504 
0.6281074269 
0.5688690299 
0.5932696886 
0.531661628 
0.5361150694 
0.5201263374 
0.5285461758 
0.5361715142 
0.5622018077 
0.5347165116 
0.5490708503 
0.5366935563 
0.5606305611 
0.5707176366 
0.5523253949 
0.554874976 
0.569138952 
0.5955330923 
0.528552939 
0.5772707908 
0.5195488972 
0.566805183 
0.5433007048 
0.5949665888 
0.5503219306 
0.5237554987 
0.5194400743 
0.5407735815 
0.6296477269 
0.5279888849 
0.5378458299 
0.5363722816 
0.5590965816 
0.5941410632 
0.5507988541 
0.5958989152 
0.5101054237 
0.622454063 
0.5530010267 
0.5608585197 
0.5782279751 
0.6198945842 
0.578736919 
0.6003923344 
0.5621318759 
0.5701654158 
0.552947989 
0.590707209 
0.5501369239 
0.5545559544 
0.5169096206 
0.5493149999 
0.5947359628 
0.6391982492 
0.6216348297 
0.5766092046 
0.542637191 
0.563937047 
0.5416657629 
0.5419179742 
0.518068355 
0.5183311294 
0.6387987844 
0.5900590518 
0.5683872739 
0.5657422124 
0.6126102281 
0.5517406381 
0.5522354418 
0.601975235 
0.5708008038 
0.6329818308 
0.6183354824 
0.5098942876 
0.6636338144 
0.5709763055 
0.5322797926 
0.5426206592 
0.5650996775 
0.5149813339 
0.5431781542 
0.5282895633 
0.5356482313 
0.5490926069 
0.5071028639 
0.5068931111 
0.6370418192 
0.6255689518 
0.5130361972 
0.5240620457 
0.5117508388 
0.5401988248 
0.5297380377 
0.5622966499 
0.6015574447 
0.5863201757 
0.5611495153 
0.6047445111 
0.5230442088 
0.5133425872 
0.5232226049 
0.5431614036 
0.5452987952 
0.5800933196 
SCALARS KDE_ERROR_TAG double 1
LOOKUP_TABLE default
0.0202856038 
0.02044640697 
0.02073219397 
0.02112720098 
0.02136786138 
0.02164446851 
0.02232281316 
0.02308048346 
0.02348121277 
0.02308331468 
0.02285182182 
0.02166241383 
0.02134840887 
0.02095548221 
0.02084387551 
0.02019509762 
0.02070011444 
0.02031756687 
0.02055484705 
0.02106343428 
0.02160242609 
0.02221546081 
0.02242466259 
0.0229072633 
0.02350052071 
0.02318270706 
0.02271426792 
0.0223101071 
0.02180366828 
0.02112636798 
0.02057252698 
0.02075228798 
0.02277762818 
0.02252089943 
0.0234809314 
0.02452157849 
0.0247165851 
0.02486929302 
0.02511440594 
0.02512879484 
0.02390443355 
0.02346672036 
0.02230152949 
0.02205594534 
0.02194730869 
0.02160209165 
0.02186043995 
0.02205646621 
0.02226309075 
0.02229952634 
0.02306888786 
0.02336843269 
0.02409742549 
0.02465106521 
0.02538758696 
0.02467213615 
0.02446154476 
0.02361293328 
0.02285591897 
0.02270305611 
0.02225616604 
0.02172046577 
0.02205507494 
0.0217898298 
0.02192302336 
0.02230333496 
0.02296014384 
0.02393202657 
0.02469916715 
0.02457373895 
0.0248298322 
0.02419320012 
0.02381235079 
0.02317105066 
0.0222050108 
0.02204726185 
0.02171998772 
0.02153015115 
0.02181203757 
0.02160033453 
0.0218035229 
0.02190619316 
0.02264867445 
0.02342211638 
0.02401061895 
0.02409485869 
0.02450181493 
0.0244059892 
0.0242686533 
0.02370000742 
0.02323039718 
0.02274916769 
0.02207906855 
0.02148641509 
0.02157536883 
0.02174960852 
0.02183655656 
0.02199060418 
0.0224579898 
0.02301123634 
0.0238396091 
0.024828329 
0.02459683548 
0.02456660416 
0.02448324879 
0.0241114792 
0.02280803136 
0.02199385128 
0.02208455739 
0.02178258033 
0.02147042577 
0.02173986856 
0.02283046172 
0.02295301321 
0.02308306385 
0.02367278226 
0.02409300533 
0.02452143277 
0.02423467685 
0.02393234102 
0.02343877004 
0.02289812863 
0.02249464524 
0.02297741067 
0.02369379645 
0.02407639079 
0.02376091499 
0.02357823623 
0.02342234561 
0.02248752367 
0.02357719076 
0.02388615929 
0.02358479156 
0.02462065408 
0.0242975748 
0.02443512115 
0.02355401687 
0.02328027063 
0.02270723261 
0.02404661784 
0.0244701503 
0.0240114563 
0.02375650019 
0.0233771572 
0.0254483857 
0.02583780445 
0.02673861544 
0.02649003961 
0.02629694748 
0.02681526198 
0.02674216016 
0.02552292125 
0.02487968812 
0.02673042418 
0.02461820934 
0.02716555894 
0.02603566564 
0.02711673009 
0.02657953348 
0.02788950669 
0.02712838297 
0.02771865106 
0.02716286904 
0.02712545363 
0.02736512335 
0.02704891313 
0.02668500886 
0.02608889185 
0.02719554664 
0.0267277309 
0.02680851846 
0.0259204188 
0.02713951784 
0.02638931213 
0.0278577858 
0.02658605122 
0.02671560384 
0.02597884758 
0.02715786965 
0.02705304155 
0.02800084065 
0.02725104048 
0.02483759342 
0.02741862461 
0.02711642359 
0.02718389305 
0.02636841364 
0.02588728501 
0.02686030161 
0.02533631995 
0.02740495545 
0.02526964004 
0.02722623037 
0.02684577231 
0.02665607947 
0.02569523593 
0.02646250723 
0.02577312272 
0.02701554144 
0.02674266796 
0.02724587973 
0.02640382023 
0.02679629986 
0.0271211951 
0.02804459383 
0.02742440068 
0.02620782698 
0.02487482306 
0.02476049218 
0.02651028891 
0.02720605286 
0.02666261202 
0.02721759858 
0.02708804442 
0.02773507315 
0.02783829021 
0.02504246308 
0.02619245218 
0.02644004186 
0.02693200668 
0.02570169164 
0.02652989531 
0.0264876793 
0.02597295251 
0.02688070711 
0.02528084757 
0.02550198869 
0.02756649531 
0.02468892303 
0.02674204646 
0.02722337699 
0.02730161681 
0.02700346569 
0.02745605447 
0.02716841789 
0.02806063136 
0.0272070338 
0.02713117732 
0.02791561569 
0.02802675642 
0.02491147215 
0.02578679483 
0.02752046863 
0.02746456209 
0.0270606198 
0.02763867076 
0.02744755083 
0.02641068106 
0.02624046398 
0.02615624521 
0.02642813396 
0.02555941594 
0.02758578668 
0.02701854391 
0.02694740453 
0.02687572316 
0.02709150406 
0.0261430267 
