# vtk DataFile Version 3.0
MOAB 4.9.0
ASCII
DATASET UNSTRUCTURED_GRID
POINTS 258 double
0.75 6.123233996e-17 -0.5
0.7880602337 0.1913417162 -0.5
0.8964466094 0.3535533906 -0.5
1.058658284 0.4619397663 -0.5
1.25 0.5 -0.5
1.441341716 0.4619397663 -0.5
1.603553391 0.3535533906 -0.5
1.711939766 0.1913417162 -0.5
1.75 0 -0.5
1.711939766 -0.1913417162 -0.5
1.603553391 -0.3535533906 -0.5
1.441341716 -0.4619397663 -0.5
1.25 -0.5 -0.5
1.058658284 -0.4619397663 -0.5
0.8964466094 -0.3535533906 -0.5
0.7880602337 -0.1913417162 -0.5
0.75 6.123233996e-17 0.5
0.7880602337 -0.1913417162 0.5
0.8964466094 -0.3535533906 0.5
1.058658284 -0.4619397663 0.5
1.25 -0.5 0.5
1.441341716 -0.4619397663 0.5
1.603553391 -0.3535533906 0.5
1.711939766 -0.1913417162 0.5
1.75 -1.224646799e-16 0.5
1.711939766 0.1913417162 0.5
1.603553391 0.3535533906 0.5
1.441341716 0.4619397663 0.5
1.25 0.5 0.5
1.058658284 0.4619397663 0.5
0.8964466094 0.3535533906 0.5
0.7880602337 0.1913417162 0.5
0.9722082135 0.4157303493 0.002296580092
1.152450547 0.4903917864 0.00243671323
1.347540777 0.4903935121 0.00253689464
1.527781394 0.4157372936 0.002540114026
1.665732365 0.2777887698 0.002540521497
1.740391794 0.09754941354 0.002540579871
1.740393466 -0.09754100763 0.002540643512
1.665737003 -0.2777818287 0.002541001128
1.527787733 -0.4157330576 0.002543068742
1.347545968 -0.4903924797 0.002554350711
1.152448599 -0.490391399 0.002612630707
0.9722201298 -0.4157383116 0.002659192129
0.8342709044 -0.2777936628 0.002689742991
0.8342762402 0.2778016478 0.002359346965
0.7596088407 0.09755260587 0.002563573088
0.7596142352 -0.09757971952 0.002712426452
0.8964471582 -0.3535539394 0.169090351
1.058663292 -0.4619418409 0.1690820167
1.250009541 -0.4999999999 0.1688957248
1.441350691 -0.4619360485 0.1688903664
1.60356038 -0.3535464012 0.1688897185
1.711943572 -0.1913325285 0.1688896432
1.75 9.972457277e-06 0.1688896315
1.71193593 0.1913509782 0.1688896009
1.60354616 0.3535606212 0.1688893733
1.441331514 0.4619439922 0.1688876413
1.249985613 0.4999999998 0.1688744265
1.058632336 0.4619290173 0.1687731682
0.8964595669 0.3535663476 0.1687526974
0.7880633942 0.1913493459 0.16876169
0.7880830198 -0.1913967174 0.1690585053
0.7500000017 4.104430722e-05 0.1687606598
0.8964359774 0.3535427582 -0.1641581878
1.058680855 0.461949115 -0.1639166172
1.250000041 0.5 -0.1638204064
1.441341702 0.4619397721 -0.1638202976
1.603553374 0.353553407 -0.163820282
1.71193976 0.1913417306 -0.163820278
1.75 -1.936919254e-08 -0.1638202673
1.71193971 -0.1913418517 -0.1638202033
1.603552973 -0.3535538087 -0.1638198145
1.44133981 -0.4619405557 -0.1638175475
1.249993621 -0.5 -0.1638055821
1.058644695 -0.4619341372 -0.1637565681
0.8964527483 -0.3535595294 -0.1637249798
0.7880672981 -0.1913587702 -0.1637004475
0.7880622009 0.1913464652 -0.1638421455
0.7500000006 -2.470078979e-05 -0.1635904718
0.8342378247 -0.2777441513 0.3349063075
0.9722624507 -0.4157665856 0.3345654839
1.152467649 -0.490395188 0.3343857138
1.347557971 -0.490390092 0.3343857138
1.527795976 -0.4157275499 0.3343857138
1.665742062 -0.277774257 0.3343857138
1.740395188 -0.09753235154 0.3343857137
1.740390092 0.09755797022 0.3343857131
1.66572755 0.2777959763 0.3343857084
1.527774248 0.415742068 0.3343856741
1.347532276 0.4903952031 0.334385439
1.152441606 0.4903900078 0.3343839095
0.9722022978 0.4157263964 0.3343745904
0.8342532871 0.2777672959 0.3343234579
0.7596005061 0.09751069872 0.3340994152
0.7595989028 -0.09750263527 0.3337582249
0.8342651938 0.2777851165 -0.3310517811
0.9722148835 0.4157348062 -0.3310517811
1.152454839 0.4903926402 -0.3310517811
1.347545161 0.4903926402 -0.3310517811
1.527785117 0.4157348062 -0.3310517811
1.665734806 0.2777851165 -0.3310517811
1.74039264 0.09754516101 -0.3310517811
1.74039264 -0.09754516101 -0.3310517811
1.665734806 -0.2777851165 -0.3310517811
1.527785117 -0.4157348062 -0.3310517811
1.347545161 -0.4903926402 -0.3310517811
1.152454839 -0.4903926402 -0.3310517811
0.9722148835 -0.4157348062 -0.3310517811
0.8342651938 -0.2777851165 -0.3310517811
0.7596073598 -0.09754516101 -0.3310517811
0.7596073598 0.09754516101 -0.3310517811
0.9536465472 0.04618786222 -0.5
1.00287455 0.2416448663 -0.5
1.190365112 0.2954670438 -0.5
1.383106432 0.3225470908 -0.5
1.504232255 0.1690736851 -0.5
1.600783524 0.0003851645617 -0.5
1.50579138 -0.1709888883 -0.5
1.385834781 -0.324582301 -0.5
1.194869128 -0.3031155981 -0.5
1.038880947 -0.2748242166 -0.5
0.9240148157 -0.1469191159 -0.5
1.139128631 0.1028748785 -0.5
1.31529403 0.1472092839 -0.5
1.416993544 -0.002601132257 -0.5
1.313355166 -0.1522756309 -0.5
1.117640405 -0.1046363503 -0.5
1.260482355 -0.00188579022 -0.5
0.969544267 -0.103031765 0.5
1.11902354 -0.2965865035 0.5
1.32262545 -0.2845687188 0.5
1.506250096 -0.2467481756 0.5
1.558201407 -0.06487002854 0.5
1.574801536 0.1288009835 0.5
1.419750895 0.247321626 0.5
1.248790887 0.3453820353 0.5
1.07741235 0.2512011627 0.5
0.9282526776 0.1271648905 0.5
1.221177455 -0.0781489964 0.5
1.402438241 -0.1260788355 0.5
1.403397072 0.0425552318 0.5
1.243096877 0.1463726497 0.5
1.087896725 0.06871158831 0.5
1.110726237 -0.1783854812 -0.1260688305
1.180900335 -0.3617390096 -0.1297549456
1.302721381 -0.1607831717 -0.1299756616
1.184965253 -0.3269213736 0.002600036561
1.114776492 -0.3375417292 -0.2453646511
1.254750609 -0.2222499549 -0.254684031
1.084648371 -0.1436516047 -0.2568347454
0.998393774 -0.2515693009 -0.2562094927
0.9526141286 -0.2004665136 -0.1247095764
1.12373817 -0.07533164322 -0.002670465037
0.979182303 -0.2527414262 0.001116487081
1.219668746 -0.04329782352 -0.1416324526
1.031049967 -0.03462633491 -0.2507101893
1.463059783 -0.09295804054 -0.3751334548
1.519749522 -0.2560150921 -0.2535970211
1.393609524 -0.191325292 -0.2536425889
1.450686216 -0.2911351323 -0.3778195977
1.55961442 0.09058718383 -0.3819922507
1.356383681 0.06429852545 -0.381075114
1.59715724 -0.08332540095 -0.3682122529
1.333341956 -0.2570513487 -0.3786284328
1.323739409 -0.09982158989 -0.3810746074
1.107296467 0.05778951943 0.04625948519
1.057627559 0.2895126641 0.03894719109
1.295029283 0.1111242175 0.004043503664
1.169355392 0.1296989918 -0.1344429255
1.258823991 -0.02876117453 -0.2584091425
1.045685053 0.1115376875 -0.2573685348
1.318246722 -0.3663766682 0.0810123235
1.324617505 -0.3617429435 -0.1297946572
1.435194612 -0.2771610022 0.002501917304
1.448141694 0.2912281156 -0.376187861
1.28753078 -0.2363646626 0.1632636636
1.05249393 -0.3068859875 0.1630217731
1.370385051 -0.3382346928 0.2756128609
1.555957556 -0.2028077841 -0.1285487562
1.470716238 -0.04473161697 -0.1297172755
1.33716619 -0.08671892434 0.002611289965
0.9178019166 0.1779746115 -0.3044440746
1.409392238 0.006994291674 -0.2486784011
1.405454278 0.1709344238 -0.1300458312
1.315573335 0.1418387443 -0.2606957257
1.208310246 0.2358512431 -0.2573568225
1.048128247 0.3057467639 -0.1299884915
1.189681768 0.3544258475 -0.1251629442
0.9465200901 0.2041444033 -0.1299400032
1.559008718 0.2041358054 -0.1298048943
0.9063692093 0.06386609375 -0.1214637384
1.11289835 0.07646874338 0.2368118316
1.230427623 -0.06584890187 0.2450127602
1.1250844 0.2058719844 0.1277487427
0.9757316709 0.2057674229 0.1408175975
1.234740853 0.1076816991 -0.3773338497
0.9423919916 0.1302056462 0.002500652801
1.307900429 0.3189432919 0.014257906
1.332107902 0.3637795448 -0.1379605532
1.545316339 -0.1836313903 0.2748921216
1.141560793 0.02025646344 -0.377948761
1.198088408 -0.1004378721 -0.3843638003
1.457392097 -0.3067452013 -0.1298030615
1.579908967 -0.1344098002 -0.2470857203
1.393692374 -0.3407376111 -0.2523858845
0.9925704598 -0.07078426331 -0.3809494972
0.9109605551 -0.1435008198 -0.2568955719
0.8823785186 -0.06175342947 0.2755190432
1.107759356 -0.2652493715 -0.3863215744
1.433598161 0.1606344134 -0.3176989853
1.323204875 0.2314005941 -0.3767154813
1.393694043 0.339744091 -0.252387464
1.513170719 0.2599122524 -0.252387464
1.593002558 0.1404356062 -0.252387464
1.485204101 0.2051517814 0.007528511342
0.8806242943 -0.0003862817539 -0.2876097858
1.089953184 0.3385726213 -0.2503696978
1.097685695 0.1805505008 -0.3752900362
1.279925466 0.1956330538 0.1856170446
1.024204493 0.2782453895 0.2797117531
1.094741464 -0.02633588016 0.359169066
1.02127564 -0.1357502192 0.172901988
1.150694132 0.1877027154 0.3631866574
1.25400877 0.06956776232 0.3707508147
0.8926460147 0.04558301717 0.139582634
0.9150899649 -0.08285105228 0.01866657659
1.45169723 -0.0904860273 0.183638975
0.8871197701 0.1422901452 0.2529987395
1.251380801 0.3743831515 -0.3230782151
1.448141813 0.2943475842 0.1189035922
1.408147931 0.131603092 0.2450286895
1.255379677 -0.3677121699 -0.2590662837
1.612716913 0.003341748146 -0.2511408031
1.415024281 -0.2347097844 0.3929045498
1.576917887 0.06502569467 0.002569311066
1.6140064 0.07136286795 -0.1298047751
1.455141664 0.299726963 -0.1241403967
1.614007592 -0.07234994322 -0.1298047751
1.544225335 -0.09754872322 0.002575000981
0.8947383761 -0.07792990655 -0.1320438683
1.054858088 -0.311914295 -0.1265496314
1.519383192 0.2432414293 0.3863367438
1.487622976 0.007540776394 0.3756693006
1.615386844 0.1126664355 0.2205646038
1.44007194 0.3188075125 0.275698334
1.349395394 0.1794255376 0.3748820722
1.169570088 0.3542713225 0.1253354698
0.9663605094 0.09014400095 0.318944186
1.151343107 -0.2010613531 0.3283568025
1.35607779 -0.08318732679 0.3707523346
0.9927636385 -0.2043811679 0.3867866397
1.561081648 0.1972554475 0.1491530538
1.558960676 -0.2298330963 0.1220229268
1.615685821 -0.09288331121 0.1220226735
1.278325319 0.3606494665 0.3337435126
1.314012647 0.3798172474 0.1701941043
1.180632591 -0.3664267361 0.3194567859
CELLS 1041 5205
4 144 145 146 147
4 144 145 148 149
4 144 150 151 152
4 144 150 148 151
4 144 153 152 154
4 144 149 148 150
4 144 155 150 156
4 144 146 149 155
4 157 158 159 160
4 125 157 161 162
4 117 161 157 163
4 126 164 157 165
4 117 157 118 163
4 125 126 157 165
4 166 167 168 169
4 156 169 170 171
4 147 172 173 174
4 41 173 172 174
4 51 41 172 174
4 6 116 101 175
4 50 176 172 177
4 147 172 176 177
4 50 41 147 172
4 50 41 42 147
[...]
POINT_DATA 258
SCALARS KDE_TALLY_TAG double 1
LOOKUP_TABLE default
0.9318230015 
0.8658677192 
0.8656302095 
0.8296594527 
0.8073643427 
0.7974529917 
0.717188586 
0.6969896694 
0.6539415815 
0.681472336 
0.6877372332 
0.768986361 
0.7903647146 
0.8428052909 
0.8829236586 
0.8735855645 
0.9226336678 
0.9106071886 
0.921708183 
0.8250196781 
0.7973907021 
0.7401368614 
0.6991075018 
0.6816713985 
0.6834901383 
0.7131075928 
0.7181765116 
0.736087864 
0.7812797777 
0.8380279066 
0.8774806948 
0.9111265876 
0.7417678871 
0.7155478279 
0.6965420435 
0.634120093 
0.6042339232 
0.6153569218 
0.576794735 
0.6149332147 
0.6661641728 
0.6856261097 
0.7286810925 
0.7512474623 
0.7587385652 
0.7937869844 
0.7470677022 
0.7956537614 
0.7700976611 
0.7291532515 
0.688302996 
0.6449687051 
0.6312377073 
0.6181328197 
0.6045051043 
0.6389349217 
0.6002906404 
0.65066324 
0.6847878092 
0.7468615845 
0.7432424881 
0.822210278 
0.7923737749 
0.8406938509 
0.8262741639 
0.7299237415 
0.6950253892 
0.6965775323 
0.6613206329 
0.5919099066 
0.629712259 
0.6027556411 
0.6428154529 
0.6839389742 
0.7286427958 
0.7966544443 
0.7789281133 
0.8055283222 
0.7832851279 
0.817734862 
0.7669784234 
0.7797670762 
0.727215964 
0.7083932347 
0.6313740093 
0.6386606919 
0.6497735237 
0.6259988569 
0.6548761808 
0.6437585907 
0.7094291259 
0.7113288184 
0.7622127159 
0.8179983994 
0.8400668388 
0.7716413691 
0.7940858941 
0.8082024807 
0.7418209005 
0.684140407 
0.6669107835 
0.6256440514 
0.6125721224 
0.6454608145 
0.6238418917 
0.7103626643 
0.7299745783 
0.7731331216 
0.8025789979 
0.7678717379 
0.831152292 
0.8292095551 
0.7578904776 
0.7143169838 
0.7143003658 
0.6694579993 
0.6347276338 
0.6272359165 
0.6650249195 
0.6636328318 
0.735734259 
0.7756081128 
0.7175514608 
0.7332110418 
0.6860783504 
0.6297990744 
0.687612478 
0.6703774291 
0.6651577773 
0.7146176567 
0.6814363877 
0.6508355369 
0.6415096079 
0.5891682533 
0.6457313271 
0.6355349911 
0.669343488 
0.7138424055 
0.7430671819 
0.623357607 
0.5910496989 
0.6883212785 
0.6873124763 
0.6842422946 
0.6028054548 
0.6233763925 
0.5465755187 
0.5507991447 
0.591924579 
0.5391403152 
0.5902425744 
0.6257399336 
0.6044629339 
0.5943700462 
0.6132062562 
0.6057187825 
0.588166318 
0.5223823494 
0.552867969 
0.5136457785 
0.5434570772 
0.5329528357 
0.5582447216 
0.5238957179 
0.5669015909 
0.5322588807 
0.5720209284 
0.5878624322 
0.5315347348 
0.5521189546 
0.5839958255 
0.5970391727 
0.5214312491 
0.6082443128 
0.5256383218 
0.5688379814 
0.5371673402 
0.6083439783 
0.541114643 
0.4876931607 
0.5280237059 
0.525112715 
0.6451575344 
0.4950004286 
0.5383909045 
0.5522305592 
0.5593278907 
0.6081644166 
0.5402107386 
0.6118007425 
0.4950209864 
0.614759915 
0.5620054733 
0.5416350173 
0.5491627511 
0.6245802417 
0.5706833611 
0.5856426796 
0.5314009718 
0.5809066806 
0.5440954283 
0.5951709255 
0.5497303381 
0.5517923354 
0.5286946171 
0.5122197938 
0.5801993031 
0.6399044112 
0.6376294926 
0.57707655 
0.5552831059 
0.5535510796 
0.5494838379 
0.5371051689 
0.5227290978 
0.5358290668 
0.6456372267 
0.5953139055 
0.5625747368 
0.5741228904 
0.6057802108 
0.5415494267 
0.5513741895 
0.5877405495 
0.5921974292 
0.6275319947 
0.6368053406 
0.4993225056 
0.6535076148 
0.5840745467 
0.5109480257 
0.5275364527 
0.5451486325 
0.4969225822 
0.5530865231 
0.5317568368 
0.5368036643 
0.5775603513 
0.4784410861 
0.5008715079 
0.6254448404 
0.6253399585 
0.529424637 
0.5313122645 
0.5094140503 
0.5772131926 
0.5366068239 
0.55898653 
0.5832498799 
0.6000021763 
0.5670294801 
0.5964921708 
0.5403476678 
0.5174141438 
0.5177418421 
0.5444479237 
0.5500204211 
0.5939021422 
SCALARS KDE_ERROR_TAG double 1
LOOKUP_TABLE default
0.02952640189 
0.02844497009 
0.02905491462 
0.02929165167 
0.02968568259 
0.03049094787 
0.03294616578 
0.03402407713 
0.03340978228 
0.0324901291 
0.03251294342 
0.03018203351 
0.02985853995 
0.02887638487 
0.02903086592 
0.02872697448 
0.02997297308 
0.02831653315 
0.02882358566 
0.02964404283 
0.03087492142 
0.03073585943 
0.03136621989 
0.03299873321 
0.03270810173 
0.03249575801 
0.03197167881 
0.03130764223 
0.03109193215 
0.02959048673 
0.02974989253 
0.02960116254 
0.03119615496 
0.03069517463 
0.03242980545 
0.03272657001 
0.03348274916 
0.03379612561 
0.03468573353 
0.03432469805 
0.03304130264 
0.03202770838 
0.02982580363 
0.02988403769 
0.03068252365 
0.03025682579 
0.03138636297 
0.03003675977 
0.03046634702 
0.03004791323 
0.03184688186 
0.03231407475 
0.03248905626 
0.03429693138 
0.03472567206 
0.03377229534 
0.03379169162 
0.03191156936 
0.03098649185 
0.03012113291 
0.03051047426 
0.02981968812 
0.03092972573 
0.03003149295 
0.03000434918 
0.03068626313 
0.03063652954 
0.03238222423 
0.03301850046 
0.03360623481 
0.03458544181 
0.03387333896 
0.03247298906 
0.03198039715 
0.03101192596 
0.03059664532 
0.02905452733 
0.02941786279 
0.0303198651 
0.03042992047 
0.0292449521 
0.02944576399 
0.03083672973 
0.03233418834 
0.03231670977 
0.03218048541 
0.03362680954 
0.03350023825 
0.03214427983 
0.03145663806 
0.03103408617 
0.03132281121 
0.03078742053 
0.02935711305 
0.03008601198 
0.03038364031 
0.03025045152 
0.02988946153 
0.03120350264 
0.03020989009 
0.03162104573 
0.03443324187 
0.03449758938 
0.03337738904 
0.0333338118 
0.03134724226 
0.03083753376 
0.02980666091 
0.0298160092 
0.03032515424 
0.03018873734 
0.03009258512 
0.03046277423 
0.03029991282 
0.03022720222 
0.03124818868 
0.03264948621 
0.03192603046 
0.03158691739 
0.0309473994 
0.03095509651 
0.02973597493 
0.02981706478 
0.03023153114 
0.03124071406 
0.03128951457 
0.03167655224 
0.03190132934 
0.03106587482 
0.03111749569 
0.03086370758 
0.0317669188 
0.0322132476 
0.03257153782 
0.03183554021 
0.03158362751 
0.03071639908 
0.03080450643 
0.03071595261 
0.03323854004 
0.0333030978 
0.03296023699 
0.03126318125 
0.03067292505 
0.03796348281 
0.03526857801 
0.0404811214 
0.03774769521 
0.03535150736 
0.0380768509 
0.0378557064 
0.03417945264 
0.034245279 
0.03949870679 
0.03396756573 
0.03829646251 
0.03750334173 
0.03734136075 
0.03512382705 
0.03987234134 
0.036088847 
0.03588645627 
0.0373242219 
0.03513971084 
0.03703942352 
0.03772324092 
0.03895910655 
0.03567943549 
0.04028574861 
0.04000065726 
0.03761188533 
0.03790097219 
0.0376242638 
0.03566379022 
0.03879976098 
0.03430491397 
0.03921601534 
0.03567048952 
0.03791067941 
0.03784860126 
0.04106599189 
0.04107028523 
0.03174863231 
0.0409526202 
0.03941145406 
0.03900054158 
0.03736345175 
0.03528098222 
0.03730568953 
0.03490631342 
0.03750373242 
0.03446012389 
0.03913066034 
0.03947409771 
0.03906710675 
0.03458502576 
0.03639485569 
0.03613016072 
0.0391733804 
0.036386465 
0.03623587274 
0.03611414198 
0.03697026996 
0.03669739197 
0.03720234678 
0.03763346463 
0.03446681701 
0.03296270031 
0.03320248655 
0.03539512765 
0.03873826475 
0.03598908887 
0.03659864656 
0.03612883724 
0.03673136176 
0.03925536094 
0.03330807999 
0.03449883187 
0.03642019711 
0.03883086663 
0.03403509262 
0.0375445903 
0.03789844898 
0.03595761154 
0.03591195726 
0.0338742521 
0.03383659657 
0.04160306064 
0.03227788724 
0.03461612824 
0.03857306176 
0.0397137127 
0.0358932842 
0.03742399644 
0.03594465073 
0.03802287235 
0.03699809672 
0.03662948065 
0.03873553903 
0.0402002817 
0.0337402447 
0.03460774425 
0.03530170633 
0.037527427 
0.0368461634 
0.03594466211 
0.0381561017 
0.03635495703 
0.03605710726 
0.03733930753 
0.03718874416 
0.03290212626 
0.03654279513 
0.03658300045 
0.0367628209 
0.03573076253 
0.03676055076 
0.03357569261 
