# vtk DataFile Version 3.0
MOAB 4.9.0
ASCII
DATASET UNSTRUCTURED_GRID
POINTS 1225 double
0 -0.5 0.5
0 0.5 0.5
0 -0.3333333333 0.5
0 -0.1666666667 0.5
0 0 0.5
0 0.1666666667 0.5
0 0.3333333333 0.5
0 0.5 -0.5
0 0.5 0.3333333333
0 0.5 0.1666666667
0 0.5 0
0 0.5 -0.1666666667
0 0.5 -0.3333333333
0 -0.5 -0.5
0 0.3333333333 -0.5
0 0.1666666667 -0.5
0 0 -0.5
0 -0.1666666667 -0.5
0 -0.3333333333 -0.5
0 -0.5 -0.3333333333
0 -0.5 -0.1666666667
0 -0.5 0
0 -0.5 0.1666666667
0 -0.5 0.3333333333
0 -0.3333333333 0.3333333333
0 -0.1666666667 0.3333333333
0 -6.938893904e-18 0.3333333333
0 0.1666666667 0.3333333333
0 0.3333333333 0.3333333333
0 -0.3333333333 0.1666666667
0 -0.1666666667 0.1666666667
0 -1.387778781e-17 0.1666666667
0 0.1666666667 0.1666666667
0 0.3333333333 0.1666666667
0 -0.3333333333 0
0 -0.1666666667 0
0 0 0
0 0.1666666667 0
0 0.3333333333 0
0 -0.3333333333 -0.1666666667
0 -0.1666666667 -0.1666666667
0 0 -0.1666666667
0 0.1666666667 -0.1666666667
0 0.3333333333 -0.1666666667
0 -0.3333333333 -0.3333333333
0 -0.1666666667 -0.3333333333
0 0 -0.3333333333
0 0.1666666667 -0.3333333333
0 0.3333333333 -0.3333333333
2.5 -0.5 -0.5
0.2083333333 -0.5 -0.5
0.4166666667 -0.5 -0.5
0.625 -0.5 -0.5
0.8333333333 -0.5 -0.5
1.041666667 -0.5 -0.5
1.25 -0.5 -0.5
1.458333333 -0.5 -0.5
1.666666667 -0.5 -0.5
1.875 -0.5 -0.5
2.083333333 -0.5 -0.5
2.291666667 -0.5 -0.5
2.5 -0.5 0.5
2.5 -0.5 0.3333333333
2.5 -0.5 0.1666666667
2.5 -0.5 0
2.5 -0.5 -0.1666666667
2.5 -0.5 -0.3333333333
2.291666667 -0.5 0.5
2.083333333 -0.5 0.5
1.875 -0.5 0.5
1.666666667 -0.5 0.5
1.458333333 -0.5 0.5
1.25 -0.5 0.5
1.041666667 -0.5 0.5
0.8333333333 -0.5 0.5
0.625 -0.5 0.5
0.4166666667 -0.5 0.5
0.2083333333 -0.5 0.5
0.2083333333 -0.5 -0.3333333333
0.4166666667 -0.5 -0.3333333333
0.625 -0.5 -0.3333333333
0.8333333333 -0.5 -0.3333333333
1.041666667 -0.5 -0.3333333333
1.25 -0.5 -0.3333333333
1.458333333 -0.5 -0.3333333333
1.666666667 -0.5 -0.3333333333
1.875 -0.5 -0.3333333333
2.083333333 -0.5 -0.3333333333
2.291666667 -0.5 -0.3333333333
0.2083333333 -0.5 -0.1666666667
0.4166666667 -0.5 -0.1666666667
0.625 -0.5 -0.1666666667
0.8333333333 -0.5 -0.1666666667
1.041666667 -0.5 -0.1666666667
1.25 -0.5 -0.1666666667
1.458333333 -0.5 -0.1666666667
1.666666667 -0.5 -0.1666666667
1.875 -0.5 -0.1666666667
2.083333333 -0.5 -0.1666666667
2.291666667 -0.5 -0.1666666667
0.2083333333 -0.5 0
0.4166666667 -0.5 0
0.625 -0.5 0
0.8333333333 -0.5 0
1.041666667 -0.5 0
1.25 -0.5 0
1.458333333 -0.5 0
1.666666667 -0.5 0
1.875 -0.5 0
2.083333333 -0.5 0
2.291666667 -0.5 0
0.2083333333 -0.5 0.1666666667
0.4166666667 -0.5 0.1666666667
0.625 -0.5 0.1666666667
0.8333333333 -0.5 0.1666666667
1.041666667 -0.5 0.1666666667
1.25 -0.5 0.1666666667
1.458333333 -0.5 0.1666666667
1.666666667 -0.5 0.1666666667
1.875 -0.5 0.1666666667
2.083333333 -0.5 0.1666666667
2.291666667 -0.5 0.1666666667
0.2083333333 -0.5 0.3333333333
0.4166666667 -0.5 0.3333333333
0.625 -0.5 0.3333333333
0.8333333333 -0.5 0.3333333333
1.041666667 -0.5 0.3333333333
1.25 -0.5 0.3333333333
1.458333333 -0.5 0.3333333333
1.666666667 -0.5 0.3333333333
1.875 -0.5 0.3333333333
2.083333333 -0.5 0.3333333333
2.291666667 -0.5 0.3333333333
2.5 0.5 -0.5
2.291666667 0.5 -0.5
2.083333333 0.5 -0.5
1.875 0.5 -0.5
1.666666667 0.5 -0.5
1.458333333 0.5 -0.5
1.25 0.5 -0.5
1.041666667 0.5 -0.5
0.8333333333 0.5 -0.5
0.625 0.5 -0.5
0.4166666667 0.5 -0.5
0.2083333333 0.5 -0.5
2.5 -0.3333333333 -0.5
2.5 -0.1666666667 -0.5
2.5 0 -0.5
2.5 0.1666666667 -0.5
2.5 0.3333333333 -0.5
0.2083333333 0.3333333333 -0.5
0.4166666667 0.3333333333 -0.5
0.625 0.3333333333 -0.5
0.8333333333 0.3333333333 -0.5
1.041666667 0.3333333333 -0.5
1.25 0.3333333333 -0.5
1.458333333 0.3333333333 -0.5
1.666666667 0.3333333333 -0.5
1.875 0.3333333333 -0.5
2.083333333 0.3333333333 -0.5
2.291666667 0.3333333333 -0.5
0.2083333333 0.1666666667 -0.5
0.4166666667 0.1666666667 -0.5
0.625 0.1666666667 -0.5
0.8333333333 0.1666666667 -0.5
1.041666667 0.1666666667 -0.5
1.25 0.1666666667 -0.5
1.458333333 0.1666666667 -0.5
1.666666667 0.1666666667 -0.5
1.875 0.1666666667 -0.5
2.083333333 0.1666666667 -0.5
2.291666667 0.1666666667 -0.5
0.2083333333 0 -0.5
0.4166666667 0 -0.5
0.625 0 -0.5
0.8333333333 0 -0.5
1.041666667 0 -0.5
1.25 0 -0.5
1.458333333 0 -0.5
1.666666667 0 -0.5
1.875 0 -0.5
2.083333333 0 -0.5
2.291666667 0 -0.5
0.2083333333 -0.1666666667 -0.5
0.4166666667 -0.1666666667 -0.5
0.625 -0.1666666667 -0.5
0.8333333333 -0.1666666667 -0.5
1.041666667 -0.1666666667 -0.5
1.25 -0.1666666667 -0.5
1.458333333 -0.1666666667 -0.5
1.666666667 -0.1666666667 -0.5
1.875 -0.1666666667 -0.5
2.083333333 -0.1666666667 -0.5
2.291666667 -0.1666666667 -0.5
0.2083333333 -0.3333333333 -0.5
0.4166666667 -0.3333333333 -0.5
0.625 -0.3333333333 -0.5
0.8333333333 -0.3333333333 -0.5
1.041666667 -0.3333333333 -0.5
1.25 -0.3333333333 -0.5
1.458333333 -0.3333333333 -0.5
1.666666667 -0.3333333333 -0.5
1.875 -0.3333333333 -0.5
2.083333333 -0.3333333333 -0.5
2.291666667 -0.3333333333 -0.5
2.5 0.5 0.5
2.5 0.5 -0.3333333333
2.5 0.5 -0.1666666667
2.5 0.5 0
2.5 0.5 0.1666666667
2.5 0.5 0.3333333333
2.5 0.3333333333 0.5
2.5 0.1666666667 0.5
2.5 0 0.5
2.5 -0.1666666667 0.5
2.5 -0.3333333333 0.5
2.5 0.3333333333 -0.3333333333
2.5 0.3333333333 -0.1666666667
2.5 0.3333333333 -6.938893904e-18
2.5 0.3333333333 0.1666666667
2.5 0.3333333333 0.3333333333
2.5 0.1666666667 -0.3333333333
2.5 0.1666666667 -0.1666666667
2.5 0.1666666667 -1.387778781e-17
2.5 0.1666666667 0.1666666667
2.5 0.1666666667 0.3333333333
2.5 0 -0.3333333333
2.5 0 -0.1666666667
2.5 0 0
2.5 0 0.1666666667
2.5 0 0.3333333333
2.5 -0.1666666667 -0.3333333333
2.5 -0.1666666667 -0.1666666667
2.5 -0.1666666667 0
2.5 -0.1666666667 0.1666666667
2.5 -0.1666666667 0.3333333333
2.5 -0.3333333333 -0.3333333333
2.5 -0.3333333333 -0.1666666667
2.5 -0.3333333333 0
2.5 -0.3333333333 0.1666666667
2.5 -0.3333333333 0.3333333333
0.2083333333 0.5 0.5
0.4166666667 0.5 0.5
0.625 0.5 0.5
0.8333333333 0.5 0.5
1.041666667 0.5 0.5
1.25 0.5 0.5
1.458333333 0.5 0.5
1.666666667 0.5 0.5
1.875 0.5 0.5
2.083333333 0.5 0.5
2.291666667 0.5 0.5
0.2083333333 -0.3333333333 0.5
0.4166666667 -0.3333333333 0.5
0.625 -0.3333333333 0.5
0.8333333333 -0.3333333333 0.5
1.041666667 -0.3333333333 0.5
1.25 -0.3333333333 0.5
1.458333333 -0.3333333333 0.5
1.666666667 -0.3333333333 0.5
1.875 -0.3333333333 0.5
2.083333333 -0.3333333333 0.5
2.291666667 -0.3333333333 0.5
0.2083333333 -0.1666666667 0.5
0.4166666667 -0.1666666667 0.5
0.625 -0.1666666667 0.5
0.8333333333 -0.1666666667 0.5
1.041666667 -0.1666666667 0.5
1.25 -0.1666666667 0.5
1.458333333 -0.1666666667 0.5
1.666666667 -0.1666666667 0.5
1.875 -0.1666666667 0.5
2.083333333 -0.1666666667 0.5
2.291666667 -0.1666666667 0.5
0.2083333333 0 0.5
0.4166666667 0 0.5
0.625 0 0.5
0.8333333333 0 0.5
1.041666667 0 0.5
1.25 0 0.5
1.458333333 0 0.5
1.666666667 0 0.5
1.875 0 0.5
2.083333333 0 0.5
2.291666667 0 0.5
0.2083333333 0.1666666667 0.5
0.4166666667 0.1666666667 0.5
0.625 0.1666666667 0.5
0.8333333333 0.1666666667 0.5
1.041666667 0.1666666667 0.5
1.25 0.1666666667 0.5
1.458333333 0.1666666667 0.5
1.666666667 0.1666666667 0.5
1.875 0.1666666667 0.5
2.083333333 0.1666666667 0.5
2.291666667 0.1666666667 0.5
0.2083333333 0.3333333333 0.5
0.4166666667 0.3333333333 0.5
0.625 0.3333333333 0.5
0.8333333333 0.3333333333 0.5
1.041666667 0.3333333333 0.5
1.25 0.3333333333 0.5
1.458333333 0.3333333333 0.5
1.666666667 0.3333333333 0.5
1.875 0.3333333333 0.5
2.083333333 0.3333333333 0.5
2.291666667 0.3333333333 0.5
0.2083333333 0.5 0.3333333333
0.4166666667 0.5 0.3333333333
0.625 0.5 0.3333333333
0.8333333333 0.5 0.3333333333
1.041666667 0.5 0.3333333333
1.25 0.5 0.3333333333
1.458333333 0.5 0.3333333333
1.666666667 0.5 0.3333333333
1.875 0.5 0.3333333333
2.083333333 0.5 0.3333333333
2.291666667 0.5 0.3333333333
0.2083333333 0.5 0.1666666667
0.4166666667 0.5 0.1666666667
0.625 0.5 0.1666666667
0.8333333333 0.5 0.1666666667
1.041666667 0.5 0.1666666667
1.25 0.5 0.1666666667
1.458333333 0.5 0.1666666667
1.666666667 0.5 0.1666666667
1.875 0.5 0.1666666667
2.083333333 0.5 0.1666666667
2.291666667 0.5 0.1666666667
0.2083333333 0.5 0
0.4166666667 0.5 0
0.625 0.5 0
0.8333333333 0.5 0
1.041666667 0.5 0
1.25 0.5 0
1.458333333 0.5 0
1.666666667 0.5 0
1.875 0.5 0
2.083333333 0.5 0
2.291666667 0.5 0
0.2083333333 0.5 -0.1666666667
0.4166666667 0.5 -0.1666666667
0.625 0.5 -0.1666666667
0.8333333333 0.5 -0.1666666667
1.041666667 0.5 -0.1666666667
1.25 0.5 -0.1666666667
1.458333333 0.5 -0.1666666667
1.666666667 0.5 -0.1666666667
1.875 0.5 -0.1666666667
2.083333333 0.5 -0.1666666667
2.291666667 0.5 -0.1666666667
0.2083333333 0.5 -0.3333333333
0.4166666667 0.5 -0.3333333333
0.625 0.5 -0.3333333333
0.8333333333 0.5 -0.3333333333
1.041666667 0.5 -0.3333333333
1.25 0.5 -0.3333333333
1.458333333 0.5 -0.3333333333
1.666666667 0.5 -0.3333333333
1.875 0.5 -0.3333333333
2.083333333 0.5 -0.3333333333
2.291666667 0.5 -0.3333333333
0.2083333333 -0.3333333333 -0.3333333333
0.4166666667 -0.3333333333 -0.3333333333
0.625 -0.3333333333 -0.3333333333
0.8333333333 -0.3333333333 -0.3333333333
1.041666667 -0.3333333333 -0.3333333333
1.25 -0.3333333333 -0.3333333333
1.458333333 -0.3333333333 -0.3333333333
1.666666667 -0.3333333333 -0.3333333333
1.875 -0.3333333333 -0.3333333333
2.083333333 -0.3333333333 -0.3333333333
2.291666667 -0.3333333333 -0.3333333333
0.2083333333 -0.1666666667 -0.3333333333
0.4166666667 -0.1666666667 -0.3333333333
0.625 -0.1666666667 -0.3333333333
0.8333333333 -0.1666666667 -0.3333333333
1.041666667 -0.1666666667 -0.3333333333
1.25 -0.1666666667 -0.3333333333
1.458333333 -0.1666666667 -0.3333333333
1.666666667 -0.1666666667 -0.3333333333
1.875 -0.1666666667 -0.3333333333
2.083333333 -0.1666666667 -0.3333333333
2.291666667 -0.1666666667 -0.3333333333
0.2083333333 0 -0.3333333333
0.4166666667 1.387778781e-17 -0.3333333333
0.625 -1.387778781e-17 -0.3333333333
0.8333333333 -1.387778781e-17 -0.3333333333
1.041666667 5.551115123e-17 -0.3333333333
1.25 1.387778781e-17 -0.3333333333
[...]
POINT_DATA 1225
SCALARS KDE_TALLY_TAG double 1
LOOKUP_TABLE default
0.005634186082 
0.006864849908 
0.005987830334 
0.00645589665 
0.006197866575 
0.006020300947 
0.007004655037 
0.005834185309 
0.006689030937 
0.005916311153 
0.007415857102 
0.005987372881 
0.006349668371 
0.008036293741 
0.006191426517 
0.006419382788 
0.007123633101 
0.00646338703 
0.006514966392 
0.006000200183 
0.00551281943 
0.007158457575 
0.006474553788 
0.006344594019 
0.006735246973 
0.006621339315 
0.005706863403 
0.007050678782 
0.00631710052 
0.006127806998 
0.006961824403 
0.007661609207 
0.006106445458 
0.00625994297 
0.004697292171 
0.007790083397 
0.006260377153 
0.005338820132 
0.006325195662 
0.007295254114 
0.005321767038 
0.00619196222 
0.005716380406 
0.005489941528 
0.006868518068 
0.007022947046 
0.005927664017 
0.006490506175 
0.005719051145 
0.001500748271 
0.006006571218 
0.005505459016 
0.004860098052 
0.003583104975 
0.004098954634 
0.003335250595 
0.002960994391 
0.003012042465 
0.002548944666 
0.002130204652 
0.002232698089 
0.0008945207859 
0.001631268995 
0.001542305168 
0.0009714432045 
0.0009080388355 
0.0018248194 
0.001658750565 
0.002191854499 
0.002027597384 
0.00228392173 
0.002845972111 
0.002995799339 
0.004226149404 
0.003327615262 
0.004967206829 
0.00402711129 
0.005568820473 
0.005350809588 
0.005306970839 
0.004372495322 
0.002948769382 
0.00320045192 
0.003086312966 
0.00322792085 
0.001803239618 
0.001805705228 
0.002264960672 
0.002029127091 
0.005784791122 
0.005849996835 
0.004247554851 
0.003969602068 
0.002890741849 
0.002468521829 
0.002392825896 
0.002310058855 
0.002255143494 
0.002013062295 
0.002382059222 
0.005768073414 
0.004845663076 
0.004348507641 
0.003205604379 
0.003522896048 
0.00287714631 
0.003326992015 
0.002175771168 
0.002512024409 
0.00244101974 
0.002103286261 
0.005821201497 
0.004950453544 
0.004232552764 
0.003811677695 
0.003238657856 
0.003120811215 
0.003009476706 
0.002838229744 
0.002304784124 
0.00161134771 
0.001728823217 
0.005288581151 
0.005345788627 
0.003534462082 
0.003570826848 
0.00420258099 
0.002843106024 
0.00328986428 
0.002118648707 
0.002633410746 
0.002204952928 
0.002277654617 
0.001083476588 
0.002509149094 
0.002164076857 
0.00200754538 
0.002554666089 
0.002160680004 
0.002916038571 
0.003364041343 
0.004122678688 
0.004222396789 
0.0046601358 
0.006047917889 
0.001310613629 
0.0006903133349 
0.001270034907 
0.001086033977 
0.001116707 
0.005668110798 
0.005443949348 
0.004280976146 
0.004984014533 
0.002936164262 
0.002769154041 
0.002854544578 
0.002549996979 
0.002733060482 
0.001833134081 
0.00230362704 
0.005441407846 
0.004982578494 
0.005267293214 
0.00384087026 
0.003955239695 
0.003142748892 
0.002327530601 
0.002476530592 
0.002230631499 
0.002233847353 
0.001971495686 
0.005869051298 
0.004445996676 
0.004336634482 
0.004391824424 
0.003599179204 
0.003066320097 
0.003774072324 
0.002451002651 
0.0019623298 
0.002345621069 
0.002235365139 
0.006941066779 
0.00671532472 
0.004185445609 
0.003867949246 
0.003372981222 
0.00235038809 
0.002326392583 
0.001921973785 
0.002170467375 
0.002183936688 
0.002341694179 
0.006612227691 
0.005779300918 
0.004149989262 
0.003836013248 
0.003229342778 
0.003696830646 
0.003311749171 
0.001746378651 
0.002754894253 
0.001999354093 
0.002672322373 
0.001147766411 
0.001190786307 
0.001123013536 
0.001287723619 
0.001212817159 
0.001040717946 
0.001105630982 
0.001092102212 
0.00106092988 
0.0008807003292 
0.001517815662 
0.0008890807597 
0.001478630937 
0.0007247638372 
0.001283721024 
0.001081269781 
0.001158206851 
0.001261593691 
0.001207255939 
0.001459936764 
0.001084636397 
0.001243241722 
0.000976855458 
0.001395995106 
0.00117674724 
0.001262463669 
0.001208761931 
0.00105703399 
0.001788160085 
0.001262076733 
0.001242564346 
0.001235722188 
0.001550762591 
0.0007054198711 
0.001844161443 
0.001369626517 
0.005825937907 
0.004563687799 
0.004119281974 
0.003577745486 
0.003081093043 
0.002653527328 
0.002961482204 
0.001522172671 
0.002906712901 
0.002233413822 
0.002131548323 
0.005734705698 
0.005578655068 
0.004157452866 
0.004647714229 
0.002974225567 
0.003001180218 
0.003118200948 
0.002292075354 
0.00199005922 
0.002501606733 
0.001992149019 
0.005012213018 
0.00536286715 
0.005080519808 
0.0036906565 
0.003347317102 
0.003047546148 
0.002354291609 
0.002819103491 
0.001996940256 
0.002106458937 
0.001472935531 
0.004972650685 
0.005223763754 
0.00427242233 
0.003935538826 
0.003254496464 
0.003230373454 
0.00249649028 
0.002864454203 
0.002180021954 
0.002168189881 
0.00269369281 
0.005564232208 
0.005096624507 
0.005280537067 
0.003370263712 
0.003079430078 
0.003026344593 
0.002839117528 
0.002992921486 
0.002720938477 
0.002277753767 
0.001979932168 
0.005238338678 
0.004914319681 
0.004020781118 
0.004072882357 
0.003161390518 
0.002893926161 
0.002610020679 
0.002297964006 
0.001913844116 
0.002974890223 
0.002515661433 
0.005988196093 
0.005110766038 
0.004888251868 
0.003562772701 
0.002890317622 
0.004182840278 
0.002426332457 
0.001903897314 
0.002439741488 
0.001866599603 
0.001827398826 
0.006024461654 
0.0043039345 
0.004961493655 
0.003985677583 
0.003719497273 
0.003575013477 
0.002651387788 
0.002513266849 
0.001724527865 
0.002143181242 
0.002422082491 
0.005248973746 
0.005936238637 
0.004822769474 
0.003476695045 
0.003691781865 
0.002858483075 
0.002981385609 
0.00231439773 
0.002158631102 
0.002380992579 
0.001777016468 
0.00618433647 
0.004612426828 
0.005454584497 
0.00433358287 
0.003341705643 
0.003222744529 
0.002913695676 
0.002419879957 
0.002664637565 
0.001627487412 
0.002052761649 
0.004982111487 
0.00518684482 
0.004215789327 
0.003414245317 
0.0037523729 
0.003636025064 
0.002644641073 
0.002496501167 
0.002389597142 
0.001919693646 
0.002194426578 
0.006230590613 
0.0045331728 
0.003527615838 
0.004068715153 
0.00287576971 
0.002933669479 
0.00333084146 
0.001985930461 
0.002423093011 
0.001936281239 
0.002540184274 
0.00554553794 
0.004758780192 
0.004621646708 
0.004945629653 
0.002983808258 
0.003528330589 
0.002738591167 
0.002009189782 
0.001798592163 
0.001965168419 
0.002041458596 
0.005890805416 
0.004844066225 
0.00475230523 
0.00401671907 
0.003517141276 
0.002923201123 
0.002762704304 
0.002575737061 
0.002305317056 
0.001894552255 
0.002320922089 
0.004738805783 
0.005048755475 
0.004241230776 
0.00416516177 
0.003837045164 
0.002512910062 
0.002255734827 
0.00246972787 
0.002199897988 
0.001997388906 
0.00225941084 
0.006902071485 
0.005569668865 
0.005529562296 
0.003572702248 
0.003085419553 
0.002395913183 
0.002812979033 
0.002764061329 
0.002635148884 
0.002618349481 
0.002172072226 
0.006613062089 
0.005579108421 
0.004925182417 
0.00370996583 
0.003053035388 
0.003405433386 
0.002496489767 
0.00263553792 
0.002590051634 
0.002226202409 
0.002639053218 
0.005768884691 
0.00585754114 
0.004925699695 
0.004421167722 
0.003118686092 
0.003591935382 
0.002622792651 
0.002550903902 
0.00186308472 
0.001899092372 
0.002522351734 
0.005253406004 
0.005785390373 
0.003874413729 
0.003801423165 
0.003935201103 
0.002581303853 
0.002620390552 
0.002706998492 
0.002011597108 
0.002102085584 
0.002068634706 
0.006048674206 
0.004845452475 
0.004186265493 
0.004056729728 
0.003922134537 
0.002647146305 
0.00315543201 
0.002715455109 
0.001814145966 
0.002150954838 
0.002228773035 
0.005904338622 
0.005011977593 
0.005011669742 
0.003767735134 
0.004461677787 
0.003252206619 
0.003066973036 
0.00248128992 
0.002329190625 
0.002587183218 
0.002361895954 
0.005760740253 
0.004898961682 
0.00467218513 
0.003941215214 
0.003960350386 
0.003523177704 
0.002911074974 
0.002505443198 
0.002122286936 
0.002588836299 
0.002328551729 
0.005806111902 
0.00397032315 
0.003741334812 
0.003408595175 
0.003563728786 
0.003535683718 
0.002079363322 
0.002162667998 
0.002291827122 
0.002409298756 
0.002235074323 
0.005002006207 
0.005797090371 
0.004638318057 
0.003488539406 
0.003547932485 
0.002861625384 
0.002392669929 
0.002367632705 
0.002930950537 
0.001876295968 
0.002355773548 
0.004695190257 
0.005720535956 
0.004212031285 
0.004287088849 
0.004049590219 
0.00317609788 
0.00257956302 
0.001848687838 
0.002451863236 
0.001782434529 
0.002335168335 
0.006160881847 
0.005237014364 
0.004660781894 
0.003354713613 
0.004136692655 
0.002722182057 
0.002579230186 
0.002684578343 
0.002710244554 
0.001755999791 
0.002376542515 
0.005523646937 
0.005069136976 
0.003958313164 
0.003284142884 
0.002849067696 
0.002553123625 
0.003324584291 
0.002112078615 
0.001995928168 
0.002507816664 
0.002139256343 
0.005733081509 
0.004583055506 
0.004738573688 
0.003310947534 
0.003371468501 
0.002653756431 
0.002889209202 
0.002453959146 
0.00215227656 
0.002793679237 
0.001984601529 
0.006464266296 
0.004439734432 
0.004666722712 
0.003874715249 
0.003015422195 
0.003035715481 
0.002872143918 
0.002793004514 
0.003201512405 
0.002218244677 
0.002348354417 
0.005466795831 
0.00696458117 
0.004319777169 
0.004069970684 
0.003230219609 
0.003808369916 
0.002537375429 
0.00206003422 
0.001986911647 
0.00187033637 
0.00221662082 
0.005740249923 
0.004668126486 
0.004635119693 
0.002898394302 
0.003582997012 
0.003164309015 
0.003330085808 
0.003224955215 
0.001650759683 
0.002080548846 
0.001878527577 
0.005436970098 
0.004966383784 
0.004715231227 
0.003863071784 
0.003445695626 
0.003159110995 
0.002483539656 
0.001924809982 
0.001976027451 
0.002391947091 
0.002151691894 
0.004777790651 
0.004826075947 
0.004355207968 
0.003863921312 
0.002991611031 
0.00250589057 
0.002492228062 
0.003410754483 
0.002277461741 
0.001943000565 
0.002391845305 
0.005011962321 
0.004890774564 
0.003903297799 
0.003928500107 
0.003553090123 
0.003420657685 
0.003251736341 
0.002014255996 
0.002049376615 
0.002192959673 
0.00213402705 
0.004588107544 
0.004696183374 
0.004898804389 
0.003464307703 
0.003507898526 
0.00315328342 
0.002823710371 
0.002000553956 
0.002617565004 
0.002240367591 
0.002469694818 
0.004895167815 
0.005743967612 
0.004230867754 
0.003903970287 
0.003157982353 
0.002779331732 
0.002713185687 
0.003277814063 
0.00223625923 
0.002014188617 
0.002398180636 
8.254797971e-05 
0.0002117227367 
0.0001344284104 
0.000139038452 
0.000108819711 
0.0001219461625 
0.0001077604476 
0.0001056624716 
9.526269839e-05 
8.758012964e-05 
0.0001017306092 
0.0001055029626 
9.110380205e-05 
7.932434621e-05 
8.383824055e-05 
0.000126328321 
9.662548961e-05 
0.0001018525902 
0.0001045580389 
0.0001048668237 
0.0001258841865 
0.0001243187283 
0.000100097635 
0.0001308195993 
0.0001288700596 
0.0001443620145 
0.0001258485246 
0.0001309005003 
0.000137003811 
0.0001336018243 
0.0001226569748 
0.0001233208634 
0.0001260786279 
0.0001212016485 
8.437037301e-05 
0.0001192286393 
0.0001046659983 
0.0001093278592 
0.0001172056151 
0.0001497605436 
0.0001355502486 
0.0001094489264 
0.0001867016056 
0.0001020393114 
0.0001160174339 
0.0001090413171 
8.604368736e-05 
0.000125863569 
0.0001001350229 
0.0001007595371 
9.650632326e-05 
0.0001506005221 
0.0001490042206 
0.0001315677861 
9.607012298e-05 
0.000152098364 
0.0001289655738 
8.835533971e-05 
0.0001132407854 
8.622776485e-05 
7.811824616e-05 
0.0003126934332 
0.0001619782823 
0.0001253849491 
0.0001060369007 
0.0001173791855 
9.304257906e-05 
8.327144124e-05 
0.0002855525825 
8.236412553e-05 
9.370131545e-05 
8.064862159e-05 
0.0001066864986 
0.0001229182699 
0.0001145299566 
0.0002990855602 
0.0001334648676 
0.0001285849721 
0.0001052013406 
0.0001179699666 
8.832075655e-05 
9.115384538e-05 
9.512718299e-05 
8.082733226e-05 
7.127557587e-05 
8.279798185e-05 
0.0001329156789 
7.898436323e-05 
0.0001099555197 
7.879568253e-05 
8.954668328e-05 
0.0001227516955 
8.967889399e-05 
0.0001110056219 
0.0001041120977 
0.0001307037712 
0.0001126088517 
7.706580555e-05 
9.887002765e-05 
0.0003590247047 
8.58186659e-05 
0.0001152696546 
0.0001449290973 
0.0001226521015 
0.0001379468694 
0.0001104870231 
0.0001149565263 
0.0001131757217 
0.0001072713483 
0.0002278023905 
8.504545057e-05 
0.0001037341852 
0.0005195803215 
0.0001377641599 
0.0001144847304 
0.0001234963044 
0.0001086217872 
0.0001149704213 
0.0001057132589 
0.0001177355325 
0.0001302689325 
0.0001017892719 
8.362038655e-05 
0.0001277390257 
0.0001265039061 
0.0001363071904 
0.0001160896673 
9.632907136e-05 
0.0001039752439 
0.0001103039837 
9.462296385e-05 
0.0001030125138 
0.0001097660797 
0.0001128702015 
0.0001414330016 
0.0001277788598 
0.0001134976584 
0.0001074337012 
9.864314883e-05 
0.0001048785769 
9.820043596e-05 
0.0001123347317 
0.0001335464687 
0.0001294045444 
0.0001170915719 
0.0001874146082 
0.0001132031674 
0.0001242134004 
0.0001203621033 
9.630045745e-05 
0.0001007768089 
8.22247127e-05 
9.133697232e-05 
9.148686683e-05 
8.348779997e-05 
9.714667874e-05 
8.764737699e-05 
8.907277655e-05 
8.866594641e-05 
0.0004469264905 
0.0003848378238 
9.829603197e-05 
9.437148151e-05 
0.0001176385532 
0.0002257295382 
0.000125840382 
0.0001054410555 
0.0001140654421 
7.899774499e-05 
0.0001049913438 
0.0001059933538 
0.0003443566659 
0.0001252228374 
7.173556751e-05 
0.0001140557387 
7.925166743e-05 
9.350849876e-05 
0.0001260919554 
0.0001018918332 
9.655741511e-05 
0.0003404121772 
5.086842503e-05 
8.453711317e-05 
0.0001030232968 
0.0001275747728 
0.0001007720832 
9.179231013e-05 
0.0001119754849 
0.0001183898015 
9.922850157e-05 
0.0001104996904 
8.977067339e-05 
0.000133326577 
0.0001393325536 
0.0001080251314 
9.46943638e-05 
0.0001132081026 
0.0001222962871 
8.875239614e-05 
0.0001017351357 
0.0001146222032 
0.0001098788218 
9.525066786e-05 
0.0001371554972 
0.0001383758087 
0.0001241168879 
0.0001385175605 
0.0001157638587 
9.771814679e-05 
9.935752479e-05 
8.469648638e-05 
0.0001021640261 
8.568675649e-05 
0.0001016486287 
0.0001738536671 
0.0003067748508 
0.0001132308919 
0.0001112552095 
0.0001209159321 
0.0001007208516 
9.60952931e-05 
0.0001471946375 
0.0002311759844 
0.0001030424457 
0.0001092228044 
0.0001650341504 
0.0001123198602 
0.0001282274932 
0.0001142652542 
0.0001138530412 
0.0001115725515 
0.0001262232725 
0.0002099299987 
0.0001019632244 
7.536164744e-05 
0.0002240020642 
0.0001479067232 
0.0001397687534 
9.347175401e-05 
0.0001113955452 
0.0001083643573 
0.0001095920884 
9.598735988e-05 
8.899897588e-05 
0.0001029148565 
0.0001025388347 
9.440180838e-05 
0.0001253330871 
0.0001164067187 
0.0001171765405 
0.0001311953662 
0.0002855960968 
0.0001147030733 
9.673466609e-05 
0.0001063235311 
9.679093195e-05 
8.868788265e-05 
8.848422788e-05 
0.0001390897656 
9.255780876e-05 
0.0001052904674 
0.0001195903841 
0.0001386946618 
9.767475524e-05 
9.455152651e-05 
0.0001205487259 
0.0001140403568 
8.717652569e-05 
0.0001093400037 
0.0001405736606 
0.0001071621485 
0.0001384721956 
0.0001282592988 
9.831876162e-05 
8.305001324e-05 
0.000125548713 
0.0001230516212 
9.570552593e-05 
9.551819076e-05 
9.796653563e-05 
0.0003659757973 
0.0001275380503 
0.0001301916593 
0.0001534665548 
9.684202207e-05 
0.0001081904404 
0.0001186714402 
9.446359116e-05 
0.0001128940717 
9.834659887e-05 
6.609011769e-05 
0.0001555144178 
0.0001263656344 
0.0001267585691 
0.0002565341743 
0.0001166861379 
0.0001020784016 
9.670345118e-05 
0.0001281426852 
0.0003494841911 
0.0004297196011 
0.0001024952917 
0.0001102265817 
0.000133417262 
0.0001305765817 
0.0001118303651 
0.0001311167268 
9.574237119e-05 
8.542801385e-05 
0.0001549983037 
0.0001003664791 
0.000115696267 
8.55345633e-05 
0.000100607291 
0.0001671687814 
0.0001305886456 
0.0001029446846 
0.0001111160691 
0.0001034189122 
8.44748076e-05 
9.129262907e-05 
0.000101115017 
0.0001050987456 
9.835933854e-05 
0.0001288181929 
0.0001394175917 
0.0002154023951 
0.000154355017 
9.666032475e-05 
0.0001112022863 
0.0001028084097 
0.0003579791074 
9.435838216e-05 
7.931144113e-05 
8.448486147e-05 
0.0001339295535 
0.0001196254983 
0.0001181405105 
0.0001112858106 
9.425019842e-05 
7.270833974e-05 
8.261900921e-05 
0.0001239058945 
8.027566409e-05 
0.0001949345694 
0.0001126874281 
0.0001483044473 
0.0001235075343 
0.0001450361736 
0.0001289488795 
0.000117497855 
0.0001040755174 
0.0001002215195 
0.0001079964163 
0.0001000476018 
6.865085051e-05 
9.123793709e-05 
0.0001251493462 
0.000131484409 
0.0001173355855 
8.892655213e-05 
0.0001178437359 
0.0001015022968 
0.000112951111 
0.0001417701072 
8.891764179e-05 
9.494073673e-05 
9.00365223e-05 
0.0001326010795 
0.0001230780604 
0.0001277449341 
0.0001118856011 
0.0001117208396 
8.77438379e-05 
8.533886252e-05 
9.719659032e-05 
8.933978928e-05 
8.473759959e-05 
9.957348059e-05 
0.0001693331723 
0.0001413466533 
0.0001351240621 
0.0001026885924 
0.0001053638154 
0.0002403034279 
6.9214097e-05 
6.482613943e-05 
9.59602573e-05 
0.0001303337479 
8.139234723e-05 
0.0001286694048 
0.0001512405702 
0.0001278257462 
0.0001145008522 
0.0001060306039 
0.0001436788535 
9.599916344e-05 
0.0001028324434 
0.000120026273 
0.0001082855271 
6.70951793e-05 
0.0001854086355 
0.0001363620117 
0.0001263198124 
0.0001128917733 
0.0001300739604 
0.0001180019011 
9.218608143e-05 
0.0001341152742 
0.0001111363881 
9.185555615e-05 
0.0001038319331 
0.0001280484025 
0.0001275305449 
0.0001002475 
0.0001108322075 
0.0001152865411 
0.0001097584086 
0.0001764229751 
9.221856781e-05 
0.0001074838622 
0.0005106064964 
8.610500398e-05 
0.0001294610604 
0.0001178077241 
0.0001391861452 
0.0001198927018 
0.0001322042221 
9.585331975e-05 
0.000110902816 
0.0001058552573 
0.0001059090556 
8.962357141e-05 
9.413635863e-05 
0.0001497285905 
0.0001281352687 
8.870953854e-05 
0.000129131056 
0.0001059801447 
0.0001101188532 
9.013627197e-05 
9.889756722e-05 
6.90430432e-05 
7.427154208e-05 
9.219093768e-05 
0.0001125476829 
0.000219747218 
0.0001002873658 
8.864578499e-05 
0.0001615560516 
9.923160955e-05 
9.719964609e-05 
0.0001044577812 
0.0001012486652 
0.0001119658042 
0.0001043341434 
0.000124305309 
0.0001195159892 
0.0001109058201 
0.0001547623282 
9.963993333e-05 
9.540621173e-05 
0.0001006403411 
0.0001021126025 
9.770370131e-05 
0.0001136186681 
0.0001247210972 
0.0001157353882 
0.0001581548597 
0.0001628979305 
0.0001299853087 
9.920838915e-05 
0.0001073584723 
0.000105332524 
9.811819387e-05 
0.0001122642652 
9.730098325e-05 
9.910418413e-05 
0.0001157965172 
0.0001347007782 
0.0001181228514 
0.0001163925608 
9.16725707e-05 
8.822125379e-05 
0.0001108902302 
9.203109161e-05 
9.767655755e-05 
0.0001084186255 
0.0001898428362 
0.0001221259404 
0.0001185378165 
0.0001401115995 
0.0001213745436 
0.0001079794404 
0.0001245173012 
8.991147098e-05 
8.442856937e-05 
0.0001137031408 
8.972875805e-05 
0.0001172546233 
0.0001546871939 
0.0001045795886 
0.0001131568044 
0.000139506794 
0.0001008441169 
9.433690384e-05 
0.000106969249 
0.0001226327462 
0.0001100708174 
7.851538793e-05 
7.862090512e-05 
0.0001305321158 
0.0001240112332 
0.000105202772 
7.826897605e-05 
0.000117712083 
0.0001129783904 
0.0001318406322 
0.000192906635 
9.270443627e-05 
8.445085811e-05 
0.0001006698427 
0.0001458572636 
0.000125636449 
0.0001042702523 
0.0001250368292 
0.000115822094 
9.653100136e-05 
0.0001042949651 
8.788449683e-05 
0.0002178432796 
7.721635838e-05 
9.577516775e-05 
0.0001176435296 
0.0001074302536 
0.000134521609 
8.850286482e-05 
0.0001213441371 
0.0001058199556 
0.0001001561558 
0.0001796439813 
0.0001102815542 
8.933788492e-05 
9.184254282e-05 
0.0001251995584 
0.0001560252898 
0.0001114002848 
0.0001825387777 
0.0002472118395 
0.0001035671513 
8.262824189e-05 
0.0001136852508 
0.0001119900287 
8.664150357e-05 
0.000424275848 
0.0001501333306 
0.0001372563003 
0.0001263467277 
0.0001212207191 
8.265419605e-05 
0.0001047314827 
0.0001304172443 
0.0001268225671 
9.896352581e-05 
0.0001043874802 
0.0001073803079 
0.0001326493388 
0.00012210793 
0.00014831297 
8.166758889e-05 
0.0001000080923 
0.0001099436494 
0.0001127049061 
9.305679599e-05 
9.271102085e-05 
0.0001180429085 
9.99836564e-05 
0.0001328519913 
0.0001231733641 
9.247879328e-05 