# vtk DataFile Version 3.0
MOAB 4.9.0
ASCII
DATASET UNSTRUCTURED_GRID
POINTS 133 double
2.5 -0.5 -0.5
2.5 -0.5 0.5
2.5 -0.5 0.1666666667
2.5 -0.5 -0.1666666667
2.5 0.5 -0.5
2.5 -0.1666666667 -0.5
2.5 0.1666666667 -0.5
2.5 0.5 0.5
2.5 0.5 -0.1666666667
2.5 0.5 0.1666666667
2.5 0.1666666667 0.5
2.5 -0.1666666667 0.5
2.5 0.1601017923 -0.02126765447
2.5 -0.008333797701 0.2660948883
2.5 -0.20496936 0.05137122643
2.5 -0.1089735135 -0.2273126189
2.5 0.2636869323 0.2822987801
2.5 -0.2759939649 0.2968265563
5 -0.5 -0.5
2.916666667 -0.5 -0.5
3.333333333 -0.5 -0.5
3.75 -0.5 -0.5
4.166666667 -0.5 -0.5
4.583333333 -0.5 -0.5
5 -0.5 0.5
5 -0.5 0.1666666667
5 -0.5 -0.1666666667
4.583333333 -0.5 0.5
4.166666667 -0.5 0.5
3.75 -0.5 0.5
3.333333333 -0.5 0.5
2.916666667 -0.5 0.5
3.160452303 -0.5 -0.2104398808
3.487244794 -0.5 -0.1805234126
3.876082357 -0.5 -0.1642906562
4.262295075 -0.5 -0.1310405967
4.625405153 -0.5 0.01187407585
4.325221566 -0.5 0.2109145329
3.995206587 -0.5 0.180014614
3.609189075 -0.5 0.1612079846
3.228703331 -0.5 0.1265099118
2.870414828 -0.5 -0.01398832816
5 0.5 -0.5
4.583333333 0.5 -0.5
4.166666667 0.5 -0.5
3.75 0.5 -0.5
3.333333333 0.5 -0.5
2.916666667 0.5 -0.5
5 -0.1666666667 -0.5
5 0.1666666667 -0.5
4.341446524 0.2098971156 -0.5
4.012160845 0.1806367922 -0.5
3.623529374 0.1643226638 -0.5
3.237088479 0.1298390601 -0.5
4.631604786 0.01317692634 -0.5
3.173696663 -0.2107137518 -0.5
3.504404349 -0.180174199 -0.5
3.889712794 -0.1610083834 -0.5
4.270820825 -0.1262162582 -0.5
2.874019746 -0.01347911528 -0.5
5 0.5 0.5
5 0.1666666667 0.5
5 -0.1666666667 0.5
5 0.5 -0.1666666667
5 0.5 0.1666666667
5 0.02126765447 0.1601017923
5 -0.2660948883 -0.008333797701
5 -0.05137122643 -0.20496936
5 0.2273126189 -0.1089735135
5 -0.2822987801 0.2636869323
5 -0.2968265563 -0.2759939649
2.916666667 0.5 0.5
3.333333333 0.5 0.5
3.75 0.5 0.5
4.166666667 0.5 0.5
4.583333333 0.5 0.5
4.341446524 -0.2098971156 0.5
4.012160845 -0.1806367922 0.5
3.623529374 -0.1643226638 0.5
3.237088479 -0.1298390601 0.5
4.631604786 -0.01317692634 0.5
3.173696663 0.2107137518 0.5
3.504404349 0.180174199 0.5
3.889712794 0.1610083834 0.5
4.270820825 0.1262162582 0.5
2.874019746 0.01347911528 0.5
3.160452303 0.5 0.2104398808
3.487244794 0.5 0.1805234126
3.876082357 0.5 0.1642906562
4.262295075 0.5 0.1310405967
4.625405153 0.5 -0.01187407585
4.325221566 0.5 -0.2109145329
3.995206587 0.5 -0.180014614
3.609189075 0.5 -0.1612079846
3.228703331 0.5 -0.1265099118
2.870414828 0.5 0.01398832816
4.621167183 0.1467276365 0.02320851572
4.587869644 -0.1567480564 0.2425334156
4.739274979 0.211898312 0.2149455696
4.613420486 -0.1452762336 0.01912979782
4.487459183 0.2077860832 0.2191662192
4.798600197 -0.2607178986 -0.2513897717
2.986800671 -0.287807256 -0.1623533964
2.726988554 -0.3093886077 -0.2525732815
3.337021112 -0.1372564733 -0.2551191747
2.90698123 -0.02941352315 -0.1697928011
3.284005404 -0.1658762544 0.101363875
3.02803421 -0.2257682532 0.2356002629
2.826515913 0.05140550435 0.126691252
4.4858675 0.1870624721 -0.2482018322
4.298799992 0.2775917947 -0.02752953023
4.444809437 -0.2373282611 -0.2480938882
4.216859818 -0.09785936028 -0.1999637187
4.762773514 0.2927835584 -0.2715108693
3.274288416 0.008211490698 0.2768995464
4.217506886 0.04043630511 0.1927536577
4.153773308 0.2285368741 -0.2665785253
4.144780636 -0.2618141472 0.01969689317
3.926980972 -0.06076477468 0.2146259844
3.87608242 -0.1666666716 -0.05476365983
3.87608242 0.1666666716 0.05476349965
2.741821527 -0.2532663345 0.2478310466
2.772876501 0.2904781997 -0.2425258309
3.029907465 0.2114405781 -0.221938625
3.24358201 0.1711490601 -0.0628580302
4.806509018 -0.3666316569 0.295664221
3.627902746 -0.06697357446 0.1921230257
3.562954187 0.1991491169 0.07620308548
3.018739462 0.2663551867 0.1878198683
2.684382915 0.3530833423 0.338766247
3.623529434 0.05477424711 -0.1666666716
3.572375298 -0.2144924253 -0.06068827957
3.926980972 0.06076446176 -0.2146259844
CELLS 438 2190
4 65 96 97 98
4 65 97 96 99
4 75 90 98 100
4 61 75 60 98
4 64 60 75 98
4 80 98 97 100
4 75 98 80 100
4 65 97 80 98
4 48 70 67 101
4 66 99 67 101
4 18 70 48 101
4 26 36 66 101
4 18 26 70 101
4 19 102 55 103
4 55 102 104 105
4 81 86 72 87
4 102 104 105 106
4 102 107 106 108
4 40 106 102 107
4 19 41 102 103
4 102 106 105 108
4 40 102 41 107
4 40 32 102 106
4 90 109 96 110
4 54 99 109 111
4 99 109 111 112
4 54 43 109 113
4 78 79 82 114
4 109 112 115 116
4 67 99 96 109
4 50 58 111 112
4 50 111 109 112
4 38 77 117 118
4 83 74 84 115
4 22 58 57 112
4 22 111 58 112
4 34 22 57 117
4 38 117 34 119
4 117 119 118 120
4 82 87 73 88
4 13 14 108 121
4 14 2 41 121
4 1 31 2 121
4 13 85 11 121
4 1 11 31 121
4 12 108 105 122
4 59 122 105 123
4 51 57 58 112
4 59 47 122 123
4 8 4 47 122
4 6 47 4 122
4 47 95 122 123
4 47 94 95 123
4 90 96 100 110
4 89 90 100 110
4 89 88 110 115
4 88 92 110 120
4 96 100 110 115
4 115 110 116 120
4 104 123 105 124
4 96 97 100 115
4 97 99 117 115
4 76 97 117 115
4 106 108 114 124
4 36 99 97 125
4 96 99 97 115
4 84 100 76 115
4 38 39 78 126
4 69 97 99 125
4 82 114 87 127
4 27 97 80 125
4 95 108 122 123
4 87 114 124 127
4 86 124 114 128
4 71 95 128 129
4 95 108 128 129
4 52 93 124 130
4 105 122 108 123
4 95 123 86 128
4 86 123 94 124
4 78 106 114 126
4 106 108 107 114
4 78 106 79 114
4 82 81 87 114
4 108 114 124 128
4 10 85 108 129
4 81 86 87 114
4 104 130 124 131
4 32 104 102 106
4 20 56 55 104
4 33 104 106 131
4 20 55 32 104
4 36 37 99 111
4 36 99 101 111
4 22 111 112 117
4 23 58 22 111
4 71 95 86 128
4 104 105 106 124
4 32 55 102 104
4 33 106 39 131
4 33 104 32 106
4 14 102 103 105
4 55 59 103 105
4 3 14 41 103
4 55 103 102 105
4 0 19 5 103
4 0 3 19 103
4 5 19 59 103
4 81 114 85 128
4 10 85 13 108
4 85 128 108 129
4 10 108 16 129
4 16 108 9 129
4 16 9 7 129
4 10 7 71 129
4 55 56 53 104
4 76 80 97 100
4 76 100 97 115
4 77 117 118 115
4 71 128 85 129
4 83 77 118 115
4 83 82 120 126
4 93 120 127 130
4 92 120 93 130
4 120 115 132 116
4 119 127 131 126
4 118 120 119 126
4 21 20 33 56
4 37 97 99 117
4 112 117 115 132
4 69 80 65 97
4 27 37 76 97
4 69 80 97 125
4 96 97 98 100
4 43 42 63 113
4 109 90 43 91
4 63 68 90 113
4 113 109 90 43
4 49 67 68 113
4 54 109 67 113
4 67 109 96 113
4 117 118 115 120
4 116 50 91 109
4 90 96 98 100
4 99 112 111 117
4 90 91 109 110
4 109 115 99 96
4 68 90 96 98
4 37 99 111 117
4 84 74 75 100
4 75 74 89 100
4 85 108 107 121
4 79 106 107 114
4 78 114 82 126
4 71 86 81 128
4 12 95 108 122
4 9 108 95 129
4 53 123 104 124
4 52 124 104 130
4 6 15 59 105
4 104 124 106 131
4 19 55 59 103
4 15 103 59 105
4 74 89 100 115
4 75 89 90 100
4 65 68 96 98
4 64 90 68 98
4 23 101 54 111
4 61 65 80 98
4 30 79 106 107
4 106 124 127 131
4 36 99 66 101
4 106 127 126 131
4 34 35 22 117
4 85 114 108 128
4 79 107 85 114
4 31 85 107 121
4 30 106 40 107
4 31 79 30 107
4 86 123 124 128
4 31 30 40 107
4 86 87 114 124
4 87 94 93 124
4 106 124 114 127
4 52 104 56 130
4 53 104 52 124
4 54 67 49 113
4 95 94 86 123
4 85 107 108 114
4 38 78 118 126
4 83 118 78 126
4 37 76 97 117
4 117 120 115 132
4 116 109 110 115
4 39 119 34 131
4 34 119 56 131
4 106 114 126 127
4 33 34 56 131
4 83 82 88 120
4 77 76 117 115
4 38 118 119 126
4 57 117 112 132
4 39 126 119 131
4 117 119 120 132
4 83 120 118 126
4 38 118 117 119
4 38 119 39 126
4 115 109 110 96
4 82 126 114 127
4 82 120 126 127
4 41 107 102 108
4 127 120 119 130
4 51 52 57 132
4 12 14 105 108
4 52 132 92 130
4 92 132 120 130
4 82 88 120 127
4 46 93 94 124
4 55 59 105 123
4 87 124 93 127
4 126 120 119 127
4 57 119 132 130
4 124 130 127 131
4 52 57 132 130
4 89 110 100 115
4 116 92 51 132
4 116 115 132 112
4 84 75 80 100
4 22 35 111 117
4 65 68 67 96
4 67 96 68 113
4 66 65 67 99
4 65 96 67 99
4 21 34 22 57
4 66 67 70 101
4 116 112 50 109
4 116 91 92 110
4 12 15 6 105
4 55 105 104 123
4 35 37 36 111
4 124 46 52 53
4 8 47 95 122
4 6 105 59 122
4 53 46 123 124
4 46 94 47 123
4 55 104 53 123
4 39 30 78 106
4 1 2 17 121
4 52 92 93 130
4 130 127 131 119
4 38 78 77 118
4 35 37 111 117
4 56 119 130 131
4 89 115 74 88
4 50 54 109 111
4 116 44 91 50
4 89 92 91 110
4 8 6 4 122
4 45 52 92 93
4 12 14 15 105
4 33 40 39 106
4 89 91 90 110
4 95 108 123 128
4 92 44 91 116
4 42 49 63 113
4 83 115 118 120
4 25 27 24 125
4 83 73 74 88
4 88 93 120 127
4 24 62 69 125
4 83 84 77 115
4 10 11 13 85
4 10 71 85 129
4 82 72 73 87
4 30 79 78 106
4 119 120 132 130
4 89 88 92 110
4 27 76 80 97
4 10 13 16 108
4 1 17 11 121
4 37 77 76 117
4 69 97 65 99
4 112 109 115 99
4 84 74 100 115
4 83 82 73 88
4 12 95 9 108
4 51 92 52 132
4 39 106 78 126
4 54 101 99 111
4 25 69 66 125
4 71 72 81 86
4 8 95 12 122
4 24 27 62 125
4 38 29 77 78
4 64 75 90 98
4 79 85 81 114
4 31 85 79 107
4 105 123 108 124
4 93 127 124 130
4 71 81 85 128
4 14 41 108 121
4 11 85 31 121
4 56 130 104 131
4 46 94 123 124
4 39 106 126 131
4 81 86 114 128
4 41 107 108 121
4 61 80 75 98
4 37 77 28 76
4 116 109 91 110
4 27 80 62 125
4 68 96 90 113
4 99 112 117 115
4 56 119 57 130
4 83 78 82 126
4 83 77 78 118
4 43 63 90 113
4 45 46 52 93
4 61 60 64 98
4 36 66 99 125
4 69 62 65 80
4 7 9 71 129
4 25 24 69 125
4 69 65 66 99
4 36 25 66 125
4 54 99 67 109
4 36 97 27 125
4 26 66 70 101
4 48 67 54 101
4 49 68 63 113
4 64 68 65 98
4 14 41 102 108
4 115 74 88 83
4 82 87 88 127
4 38 77 37 117
4 61 65 62 80
4 116 51 50 112
4 54 67 99 101
4 23 36 101 111
4 18 23 26 101
4 88 110 115 120
4 64 63 68 90
4 50 54 43 109
4 23 48 54 101
4 44 51 116 92
4 50 43 91 109
4 33 56 20 104
4 19 32 55 102
4 34 57 56 119
4 33 56 104 131
4 52 56 57 130
4 83 88 115 120
4 51 57 112 132
4 69 62 80 125
4 50 58 54 111
4 15 14 103 105
4 14 102 105 108
4 55 53 59 123
4 14 102 41 103
4 59 53 47 123
4 51 45 52 92
4 77 84 76 115
4 8 9 12 95
4 12 9 16 108
4 6 59 47 122
4 43 49 42 113
4 54 49 43 113
4 48 49 54 67
4 9 95 71 129
4 22 112 57 117
4 87 93 88 127
4 5 59 15 103
4 10 16 7 129
4 34 117 57 119
4 21 56 34 57
4 57 119 117 132
4 82 81 72 87
4 44 50 43 91
4 18 48 23 101
4 23 54 58 111
4 44 45 51 92
4 53 46 47 123
4 90 96 109 113
4 50 51 116 44
4 38 29 28 77
4 27 37 28 76
4 36 37 97 99
4 29 39 30 78
4 38 37 35 117
4 23 22 35 111
4 38 39 29 78
4 13 17 14 121
4 33 39 34 131
4 84 80 76 100
4 13 108 85 121
4 82 79 81 114
4 2 31 41 121
4 105 108 106 124
4 33 32 40 106
4 38 34 39 119
4 61 64 65 98
4 38 28 37 77
4 38 35 34 117
4 108 124 123 128
4 36 27 25 125
4 26 36 25 66
4 53 56 52 104
4 26 23 36 101
4 116 132 51 112
4 93 124 46 52
4 36 37 27 97
4 31 40 41 107
4 12 16 13 108
4 3 41 19 103
4 86 94 87 124
4 19 32 20 55
4 69 99 66 125
4 33 20 32 104
4 88 93 92 120
4 31 107 41 121
4 19 41 32 102
4 12 13 14 108
4 21 33 34 56
4 39 40 30 106
4 23 35 36 111
4 50 51 58 112
4 3 15 14 103
4 6 15 5 59
4 13 11 17 121
4 5 15 3 103
4 3 14 2 41
4 17 2 14 121
4 8 12 6 122
4 0 5 3 103
4 40 32 41 102
4 12 105 6 122
4 116 92 132 120
4 116 92 120 110
CELL_TYPES 438
10
10
10
10
10
10
10
10
10
10
10
10
10
10
10
10
10
10
10
10
10
10
10
10
10
10
10
10
10
10
10
10
10
10
10
10
10
10
10
10
10
10
10
10
10
10
10
10
10
10
10
10
10
10
10
10
10
10
10
10
10
10
10
10
10
10
10
10
10
10
10
10
10
10
10
10
10
10
10
10
10
10
10
10
10
10
10
10
10
10
10
10
10
10
10
10
10
10
10
10
10
10
10
10
10
10
10
10
10
10
10
10
10
10
10
10
10
10
10
10
10
10
10
10
10
10
10
10
10
10
10
10
10
10
10
10
10
10
10
10
10
10
10
10
10
10
10
10
10
10
10
10
10
10
10
10
10
10
10
10
10
10
10
10
10
10
10
10
10
10
10
10
10
10
10
10
10
10
10
10
10
10
10
10
10
10
10
10
10
10
10
10
10
10
10
10
10
10
10
10
10
10
10
10
10
10
10
10
10
10
10
10
10
10
10
10
10
10
10
10
10
10
10
10
10
10
10
10
10
10
10
10
10
10
10
10
10
10
10
10
10
10
10
10
10
10
10
10
10
10
10
10
10
10
10
10
10
10
10
10
10
10
10
10
10
10
10
10
10
10
10
10
10
10
10
10
10
10
10
10
10
10
10
10
10
10
10
10
10
10
10
10
10
10
10
10
10
10
10
10
10
10
10
10
10
10
10
10
10
10
10
10
10
10
10
10
10
10
10
10
10
10
10
10
10
10
10
10
10
10
10
10
10
10
10
10
10
10
10
10
10
10
10
10
10
10
10
10
10
10
10
10
10
10
10
10
10
10
10
10
10
10
10
10
10
10
10
10
10
10
10
10
10
10
10
10
10
10
10
10
10
10
10
10
10
10
10
10
10
10
10
10
10
10
10
10
10
10
10
10
10
10
10
10
10
10
10
10
10
10
10
10
10
10
10
10
10
10
10
10
10
10
10
10
10
10
10
10
10
10
10
10
10
10
10
10
10
10
CELL_DATA 438
SCALARS TALLY_TAG double 1
LOOKUP_TABLE default
0.820693079 
0.8029238329 
0.8092670949 
0.805513974 
0.7918658498 
0.8211430827 
0.8040487369 
0.8076981812 
0.8046954894 
0.8242693908 
0.7886437374 
0.8009153111 
0.7873297264 
1.164888239 
1.064971516 
1.033067427 
1.084037251 
1.125517374 
1.075421104 
1.190643846 
1.142749169 
1.116173599 
1.078771918 
0.8021924702 
0.7967524712 
0.8311903698 
0.8036885789 
1.000481559 
0.8495705195 
0.7964678032 
0.8558273882 
0.8242950811 
0.8654756698 
0.8523752338 
0.8543681738 
0.8510635136 
0.8843439514 
0.8697142471 
0.8719935338 
0.9675697323 
1.275482781 
1.28656238 
1.280128967 
1.308790791 
1.290597924 
1.252260997 
1.176503735 
0.8568473057 
1.163245709 
1.27250417 
1.272786653 
1.165873514 
1.129003495 
0.8156226179 
0.8074832384 
0.8627686963 
0.8750330212 
0.8314888242 
0.8632394572 
1.119103249 
0.7994192882 
0.8191890229 
0.8181680532 
1.080330878 
0.8189633649 
0.8127761806 
0.8217896208 
0.938049021 
0.7828009896 
1.001639993 
0.7954072312 
1.185475631 
1.018845479 
1.080203555 
1.186795302 
1.213750767 
0.9563315701 
1.171316185 
1.123308667 
1.10057972 
1.026434936 
1.106673196 
1.016393482 
1.029487417 
1.096314956 
1.247883755 
1.044892562 
1.005759855 
1.073001861 
1.034451993 
0.9937169995 
1.034295316 
0.8086746684 
0.7904444258 
0.8505564062 
0.8297290194 
1.112855711 
1.062568711 
1.052877348 
0.9925828528 
1.036707849 
1.209542282 
1.150510302 
1.313897703 
1.139282501 
1.280303013 
1.296573882 
1.255026556 
1.099125545 
1.324253969 
1.183610587 
1.307763465 
1.298300493 
1.326862217 
1.268544975 
1.010668571 
0.8203031891 
0.8076101988 
0.8434207497 
1.190735222 
0.847606464 
0.9119961648 
0.9205745267 
0.9254654097 
0.8741491185 
0.957630242 
0.9370278422 
1.002466141 
0.8300322333 
0.8409785738 
0.8006679732 
0.8323662484 
0.784235461 
0.8214819553 
0.780230281 
0.7896611433 
0.7770603974 
0.8020411339 
0.7895366759 
0.7942167878 
0.8095339811 
0.8826500916 
0.8272952091 
0.824847426 
0.8422606745 
0.813092174 
0.8105798495 
0.7989031227 
0.8392364735 
0.8476675084 
0.837720785 
1.207408361 
1.054713112 
0.9843686681 
1.106337342 
1.243335362 
1.250232629 
1.049596221 
0.9862911774 
1.27053715 
1.022148337 
1.147032334 
1.240259195 
0.838901544 
0.8198113406 
0.8110739463 
0.8121449432 
0.8030442069 
0.7985735901 
1.056843342 
1.017962192 
0.7922946983 
0.9759697533 
0.8548473696 
1.154312642 
1.10743144 
1.172845557 
1.046709266 
1.066294313 
1.084840262 
1.079467523 
1.042331484 
1.020261395 
1.015343916 
0.9617931928 
0.9928876408 
0.7892537148 
1.122227092 
1.148798151 
0.9219065935 
0.8887004594 
0.8253895359 
0.8597590846 
0.842056246 
0.9323544518 
0.9326127182 
0.9911469863 
0.9611840793 
0.9075298028 
0.8457354949 
0.9134096829 
0.870036764 
0.9393239446 
0.8812437086 
0.8778821927 
0.8631656549 
0.9283695148 
0.812991027 
0.9949072803 
0.939376877 
1.17171075 
0.9158558259 
0.9119604422 
1.289759677 
0.9283350602 
0.9100824198 
0.9266129588 
1.021242369 
1.121455123 
0.9928115216 
0.9181174319 
0.9222900179 
0.9918903568 
0.9216670397 
0.8120322243 
0.8762333472 
0.8660035582 
0.8285591629 
0.8649705994 
0.7697668488 
0.7825003293 
0.7939651098 
0.7822020029 
0.8948369562 
0.8078196171 
0.8217097334 
0.846703733 
1.293596704 
1.060752634 
0.8248785077 
1.014257133 
1.249567202 
1.217384222 
1.032045553 
1.113312098 
1.067932142 
0.9982534045 
1.360484828 
0.9125349705 
0.9640620053 
0.9035349792 
0.8338883841 
0.9567925215 
0.8563541282 
0.8119528233 
0.841892787 
0.8560776482 
1.317537186 
0.9123234469 
1.304170142 
1.013258589 
0.8444280122 
1.16907399 
0.8527519897 
0.7909907486 
0.8610398659 
0.7896393859 
0.9044243602 
0.9404264074 
0.7997836233 
0.8705873908 
1.344788143 
1.235090029 
0.9709705546 
1.007017699 
0.9127590392 
0.8803659936 
0.8273066884 
1.31888432 
1.335091336 
0.8514315817 
0.7813747511 
0.8380787239 
0.8475256856 
0.9455261174 
1.274001718 
0.9056727593 
0.9643403462 
0.7986844194 
0.7634047456 
1.09976434 
1.279753916 
0.8021119543 
0.916513533 
0.7953218453 
1.081574625 
1.12566945 
1.106910366 
0.9621149236 
1.12193646 
1.230828989 
1.246910216 
0.9853524647 
1.059499433 
1.00718833 
1.104828577 
1.193940655 
0.7950789474 
0.8324361258 
0.8395955696 
0.8186398527 
0.7867490152 
0.8326665512 
0.9613481102 
0.9549069026 
0.8921171229 
0.8032473703 
0.959842295 
0.7828398807 
0.8023962541 
0.81201812 
1.291678402 
0.7750747012 
0.7814687417 
0.7836137369 
0.7941060729 
0.8199329645 
0.7827775416 
0.800677899 
0.7882647292 
0.7756340727 
1.21039634 
0.8742101404 
0.9662160057 
0.8424562652 
0.7892676564 
0.8570442899 
0.8117253347 
0.8081971957 
0.7867943654 
0.8637963292 
0.7900726118 
0.8022276342 
0.8074914571 
0.8681333994 
0.8156874868 
1.022950605 
1.111355993 
0.9226665228 
1.008680189 
0.9361525467 
0.8789283503 
0.861961726 
0.7980418005 
0.8198551588 
1.27539293 
1.239302659 
1.097407389 
1.235322693 
1.125711017 
0.9090230323 
0.8694529707 
1.341610576 
1.345771708 
1.217500475 
0.7731502718 
0.7837130548 
0.7875343496 
1.245603799 
0.8622979038 
0.946375422 
1.287190803 
1.367459274 
0.8806584729 
0.9245306268 
0.8988871076 
1.006388614 
0.8247853576 
0.7907981743 
0.7913644546 
0.8662914901 
1.087009374 
0.7929026525 
0.8631777477 
0.890600648 
0.8467079263 
0.8228844019 
0.966091663 
0.8498383175 
0.8440604928 
0.9234754144 
1.343381907 
0.963840682 
0.8274277546 
1.261906015 
1.063632393 
1.215455929 
1.110854665 
1.059741223 
0.9245331463 
0.7750264069 
0.8526112273 
0.8433311621 
1.086468689 
0.8041337821 
0.7782857835 
0.9917426787 
0.8135262585 
0.8847014568 
0.9867326841 
0.8132437418 
1.142946361 
1.347289951 
1.251577673 
1.044979472 
1.089000885 
0.7911060295 
1.043556237 
0.8811205078 
1.168024641 
1.146421479 
1.336200592 
0.9417708942 
1.02110869 
0.8182402956 
0.8518235554 
1.331465553 
1.317830617 
1.343351873 
1.310821288 
1.336249995 
1.338789431 
1.300249855 
1.353141935 
1.1232367 
1.256706573 
0.8948721804 
0.8640067371 
SCALARS ERROR_TAG double 1
LOOKUP_TABLE default
0.01843020856 
0.0184692672 
0.01678273739 
0.01641872624 
0.01642106722 
0.01855679862 
0.01678674657 
0.01739340279 
0.02321963412 
0.01898814163 
0.022198986 
0.01823134131 
0.02251509473 
0.01452695201 
0.01484667662 
0.01536835543 
0.01408661863 
0.01346172987 
0.01431379173 
0.0147564297 
0.013992082 
0.01414143079 
0.01540218162 
0.01817096776 
0.01658829068 
0.01717008038 
0.01727020346 
0.01571332878 
0.01539238452 
0.01618261895 
0.01828221616 
0.01753674645 
0.01649689857 
0.01535760228 
0.01565067359 
0.01745307348 
0.01298171567 
0.01746587453 
0.01873386698 
0.01432067349 
0.01446491308 
0.01327121593 
0.0128224113 
0.01318806734 
0.01272860286 
0.01340156771 
0.0153265325 
0.01601378607 
0.01339298036 
0.01343633571 
0.01274054347 
0.0137683258 
0.01246545158 
0.01907362265 
0.01779894659 
0.01642961188 
0.01494042443 
0.01993858662 
0.01722170446 
0.01551997009 
0.01847341438 
0.01719068149 
0.01530547149 
0.0137643763 
0.01996722911 
0.01837342824 
0.01718279101 
0.01352257092 
0.02218131108 
0.01431465669 
0.01778373578 
0.01310262242 
0.01408546857 
0.01456122174 
0.01366334911 
0.01371219865 
0.01310122971 
0.01527393323 
0.01442593841 
0.01499204168 
0.01614959088 
0.01565518356 
0.01613145274 
0.01372635862 
0.01412878729 
0.01287062657 
0.01346540131 
0.01570589346 
0.01424525355 
0.01651760031 
0.01554950909 
0.01496970776 
0.01591696194 
0.01750475043 
0.01597174884 
0.01619782948 
0.01451779641 
0.01321248483 
0.01530440654 
0.0149369787 
0.01377596533 
0.01436672529 
0.01312684 
0.01283323822 
0.01466387059 
0.01289019671 
0.01368163304 
0.01190626505 
0.01392978312 
0.01342166448 
0.01324351842 
0.01522328104 
0.01533820553 
0.01685106074 
0.01477249742 
0.01611407882 
0.0171124631 
0.01687615475 
0.01691796233 
0.01293444283 
0.01659126442 
0.0143546326 
0.0157335895 
0.01471596153 
0.0168232729 
0.01671779228 
0.01790468566 
0.01422680123 
0.0171755785 
0.01679292168 
0.01657550408 
0.01587085461 
0.02025316237 
0.02061171521 
0.01828018225 
0.01636709876 
0.01920079205 
0.01718956404 
0.01920937493 
0.01683221564 
0.01746644759 
0.0175282237 
0.01897292228 
0.02081543892 
0.01847657535 
0.01819032852 
0.01620596537 
0.01752761447 
0.0157942956 
0.01531905676 
0.01543835368 
0.01402481066 
0.01826353908 
0.0152629711 
0.01465250487 
0.01220213567 
0.01261243872 
0.01563920611 
0.01395706874 
0.01260391624 
0.01515616807 
0.01336026036 
0.01339044006 
0.01522176509 
0.01499247909 
0.01950524903 
0.01607225903 
0.01605729853 
0.01718617279 
0.01407074965 
0.01443879888 
0.01743018497 
0.01620170574 
0.01628111008 
0.01346295903 
0.01497422451 
0.01325784159 
0.01433668769 
0.01347519043 
0.01560014625 
0.01341698987 
0.01287054438 
0.01410911724 
0.0154307278 
0.01641657825 
0.01317929875 
0.01669565255 
0.01418052313 
0.01314336961 
0.01448654349 
0.01646725425 
0.01532789658 
0.01658952241 
0.01807525515 
0.01581280695 
0.01390054415 
0.01668518646 
0.01371598395 
0.01341753999 
0.01520684449 
0.0157752148 
0.0161259954 
0.01576223626 
0.01776408445 
0.01675521628 
0.01756385949 
0.01436869547 
0.01879722287 
0.01506736432 
0.01550941416 
0.01349085453 
0.01782762974 
0.01563473015 
0.01233112953 
0.01427735982 
0.01588518711 
0.01406216301 
0.0135003748 
0.01415763636 
0.01461979761 
0.01728776436 
0.01647561993 
0.0157920972 
0.01580271461 
0.0186197277 
0.01807914854 
0.01624266154 
0.01528306925 
0.01622544812 
0.01732670563 
0.01811602691 
0.01738822876 
0.01651979766 
0.01465698286 
0.02381802382 
0.01832298925 
0.01927546129 
0.01117507749 
0.01401007179 
0.01719816125 
0.0124651355 
0.01245674635 
0.01340372783 
0.01387082844 
0.01302885042 
0.01446014866 
0.01187501853 
0.01546963739 
0.01325993997 
0.01693192976 
0.01410019204 
0.01732743799 
0.0151602315 
0.01384276239 
0.01710128889 
0.01825360343 
0.0181188957 
0.013083408 
0.01467391499 
0.01239695072 
0.0141213908 
0.01868946021 
0.01365902199 
0.01805886433 
0.01869679217 
0.01665636871 
0.02039426924 
0.01462266464 
0.01536161728 
0.02241842801 
0.01577341066 
0.01346321448 
0.01362287982 
0.01450326097 
0.01280276308 
0.01808783859 
0.01688822908 
0.01712446526 
0.01480557077 
0.01582700213 
0.01551838975 
0.01834929329 
0.01423904607 
0.01602356906 
0.01442467293 
0.01177092634 
0.0141977755 
0.01383103469 
0.01734605582 
0.02470962571 
0.01445557355 
0.01269455694 
0.01833223304 
0.01472961957 
0.01505020899 
0.01565537869 
0.01263490243 
0.01557850794 
0.01475412183 
0.01316567989 
0.01262599341 
0.01179092311 
0.01632447885 
0.01464993268 
0.01531238856 
0.01514165744 
0.0139496332 
0.0150683847 
0.01771187017 
0.01956381806 
0.01658744394 
0.01781162937 
0.01585061477 
0.01457092027 
0.0147117194 
0.01574545859 
0.01655420628 
0.01405588124 
0.01781283695 
0.01677899125 
0.01744699888 
0.01524147848 
0.02317819713 
0.01828935104 
0.01915366367 
0.01497812087 
0.0170838821 
0.02398514293 
0.01789247248 
0.01897988269 
0.01743213012 
0.0121530874 
0.01270711216 
0.01362230705 
0.01541169306 
0.01643873426 
0.01784595697 
0.01625791903 
0.0158993727 
0.01726635165 
0.01534207441 
0.01761751259 
0.01727352805 
0.01570060942 
0.01783265255 
0.01735186582 
0.01507061443 
0.01417220221 
0.01337334994 
0.0158155624 
0.01449726715 
0.01426788297 
0.01639722964 
0.02080402729 
0.01767288398 
0.01358161369 
0.01300787278 
0.01431118512 
0.01425283717 
0.01247909622 
0.01467192058 
0.01672019487 
0.01195074829 
0.01343024444 
0.01182845375 
0.01796628016 
0.01617732557 
0.01745902559 
0.01366548101 
0.01425719474 
0.01497275983 
0.01350584773 
0.01711850337 
0.01512331987 
0.01464328733 
0.01638639616 
0.01501057501 
0.01717100419 
0.01744365287 
0.01590602692 
0.01547704318 
0.01325833376 
0.01885506089 
0.01853617793 
0.01525255675 
0.01680515423 
0.0185634571 
0.01401607955 
0.01814807922 
0.01578335337 
0.01465358747 
0.01655290521 
0.01511750301 
0.01704599857 
0.01302822525 
0.01618210922 
0.01204370927 
0.01283677723 
0.01444248879 
0.01485258248 
0.01655350259 
0.01669011684 
0.01710402448 
0.01544211008 
0.01865822094 
0.01864826882 
0.01518942915 
0.01570736993 
0.01876679271 
0.01155032367 
0.01553678253 
0.01257889086 
0.01391382862 
0.01294598463 
0.01437510256 
0.01429751936 
0.02127582855 
0.0145027821 
0.01498026774 
0.0133466747 
0.01487798692 
0.01336980585 
0.01432327425 
0.01364118246 
0.01541152688 
0.0168433872 
0.01409974918 
0.01279330005 
0.01695664665 
0.01396368014 
0.01250453504 
0.01640530034 
0.01187162827 
0.01369539094 
0.01578942998 
0.01164093071 
0.01807957031 
0.01621669165 
