# vtk DataFile Version 3.0
MOAB 4.9.0
ASCII
DATASET UNSTRUCTURED_GRID
POINTS 1225 double
0 -0.5 0.5
0 0.5 0.5
0 -0.3333333333 0.5
0 -0.1666666667 0.5
0 0 0.5
0 0.1666666667 0.5
0 0.3333333333 0.5
0 0.5 -0.5
0 0.5 0.3333333333
0 0.5 0.1666666667
0 0.5 0
0 0.5 -0.1666666667
0 0.5 -0.3333333333
0 -0.5 -0.5
0 0.3333333333 -0.5
0 0.1666666667 -0.5
0 0 -0.5
0 -0.1666666667 -0.5
0 -0.3333333333 -0.5
0 -0.5 -0.3333333333
0 -0.5 -0.1666666667
0 -0.5 0
0 -0.5 0.1666666667
0 -0.5 0.3333333333
0 -0.3333333333 0.3333333333
0 -0.1666666667 0.3333333333
0 -6.938893904e-18 0.3333333333
0 0.1666666667 0.3333333333
0 0.3333333333 0.3333333333
0 -0.3333333333 0.1666666667
0 -0.1666666667 0.1666666667
0 -1.387778781e-17 0.1666666667
0 0.1666666667 0.1666666667
0 0.3333333333 0.1666666667
0 -0.3333333333 0
0 -0.1666666667 0
0 0 0
0 0.1666666667 0
0 0.3333333333 0
0 -0.3333333333 -0.1666666667
0 -0.1666666667 -0.1666666667
0 0 -0.1666666667
0 0.1666666667 -0.1666666667
0 0.3333333333 -0.1666666667
0 -0.3333333333 -0.3333333333
0 -0.1666666667 -0.3333333333
0 0 -0.3333333333
0 0.1666666667 -0.3333333333
0 0.3333333333 -0.3333333333
2.5 -0.5 -0.5
0.2083333333 -0.5 -0.5
0.4166666667 -0.5 -0.5
0.625 -0.5 -0.5
0.8333333333 -0.5 -0.5
1.041666667 -0.5 -0.5
1.25 -0.5 -0.5
1.458333333 -0.5 -0.5
1.666666667 -0.5 -0.5
1.875 -0.5 -0.5
2.083333333 -0.5 -0.5
2.291666667 -0.5 -0.5
2.5 -0.5 0.5
2.5 -0.5 0.3333333333
2.5 -0.5 0.1666666667
2.5 -0.5 0
2.5 -0.5 -0.1666666667
2.5 -0.5 -0.3333333333
2.291666667 -0.5 0.5
2.083333333 -0.5 0.5
1.875 -0.5 0.5
1.666666667 -0.5 0.5
1.458333333 -0.5 0.5
1.25 -0.5 0.5
1.041666667 -0.5 0.5
0.8333333333 -0.5 0.5
0.625 -0.5 0.5
0.4166666667 -0.5 0.5
0.2083333333 -0.5 0.5
0.2083333333 -0.5 -0.3333333333
0.4166666667 -0.5 -0.3333333333
0.625 -0.5 -0.3333333333
0.8333333333 -0.5 -0.3333333333
1.041666667 -0.5 -0.3333333333
1.25 -0.5 -0.3333333333
1.458333333 -0.5 -0.3333333333
1.666666667 -0.5 -0.3333333333
1.875 -0.5 -0.3333333333
2.083333333 -0.5 -0.3333333333
2.291666667 -0.5 -0.3333333333
0.2083333333 -0.5 -0.1666666667
0.4166666667 -0.5 -0.1666666667
0.625 -0.5 -0.1666666667
0.8333333333 -0.5 -0.1666666667
1.041666667 -0.5 -0.1666666667
1.25 -0.5 -0.1666666667
1.458333333 -0.5 -0.1666666667
1.666666667 -0.5 -0.1666666667
1.875 -0.5 -0.1666666667
2.083333333 -0.5 -0.1666666667
2.291666667 -0.5 -0.1666666667
0.2083333333 -0.5 0
0.4166666667 -0.5 0
0.625 -0.5 0
0.8333333333 -0.5 0
1.041666667 -0.5 0
1.25 -0.5 0
1.458333333 -0.5 0
1.666666667 -0.5 0
1.875 -0.5 0
2.083333333 -0.5 0
2.291666667 -0.5 0
0.2083333333 -0.5 0.1666666667
0.4166666667 -0.5 0.1666666667
0.625 -0.5 0.1666666667
0.8333333333 -0.5 0.1666666667
1.041666667 -0.5 0.1666666667
1.25 -0.5 0.1666666667
1.458333333 -0.5 0.1666666667
1.666666667 -0.5 0.1666666667
1.875 -0.5 0.1666666667
2.083333333 -0.5 0.1666666667
2.291666667 -0.5 0.1666666667
0.2083333333 -0.5 0.3333333333
0.4166666667 -0.5 0.3333333333
0.625 -0.5 0.3333333333
0.8333333333 -0.5 0.3333333333
1.041666667 -0.5 0.3333333333
1.25 -0.5 0.3333333333
1.458333333 -0.5 0.3333333333
1.666666667 -0.5 0.3333333333
1.875 -0.5 0.3333333333
2.083333333 -0.5 0.3333333333
2.291666667 -0.5 0.3333333333
2.5 0.5 -0.5
2.291666667 0.5 -0.5
2.083333333 0.5 -0.5
1.875 0.5 -0.5
1.666666667 0.5 -0.5
1.458333333 0.5 -0.5
1.25 0.5 -0.5
1.041666667 0.5 -0.5
0.8333333333 0.5 -0.5
0.625 0.5 -0.5
0.4166666667 0.5 -0.5
0.2083333333 0.5 -0.5
2.5 -0.3333333333 -0.5
2.5 -0.1666666667 -0.5
2.5 0 -0.5
2.5 0.1666666667 -0.5
2.5 0.3333333333 -0.5
0.2083333333 0.3333333333 -0.5
0.4166666667 0.3333333333 -0.5
0.625 0.3333333333 -0.5
0.8333333333 0.3333333333 -0.5
1.041666667 0.3333333333 -0.5
1.25 0.3333333333 -0.5
1.458333333 0.3333333333 -0.5
1.666666667 0.3333333333 -0.5
1.875 0.3333333333 -0.5
2.083333333 0.3333333333 -0.5
2.291666667 0.3333333333 -0.5
0.2083333333 0.1666666667 -0.5
0.4166666667 0.1666666667 -0.5
0.625 0.1666666667 -0.5
0.8333333333 0.1666666667 -0.5
1.041666667 0.1666666667 -0.5
1.25 0.1666666667 -0.5
1.458333333 0.1666666667 -0.5
1.666666667 0.1666666667 -0.5
1.875 0.1666666667 -0.5
2.083333333 0.1666666667 -0.5
2.291666667 0.1666666667 -0.5
0.2083333333 0 -0.5
0.4166666667 0 -0.5
0.625 0 -0.5
0.8333333333 0 -0.5
1.041666667 0 -0.5
1.25 0 -0.5
1.458333333 0 -0.5
1.666666667 0 -0.5
1.875 0 -0.5
2.083333333 0 -0.5
2.291666667 0 -0.5
0.2083333333 -0.1666666667 -0.5
0.4166666667 -0.1666666667 -0.5
0.625 -0.1666666667 -0.5
0.8333333333 -0.1666666667 -0.5
1.041666667 -0.1666666667 -0.5
1.25 -0.1666666667 -0.5
1.458333333 -0.1666666667 -0.5
1.666666667 -0.1666666667 -0.5
1.875 -0.1666666667 -0.5
2.083333333 -0.1666666667 -0.5
2.291666667 -0.1666666667 -0.5
0.2083333333 -0.3333333333 -0.5
0.4166666667 -0.3333333333 -0.5
0.625 -0.3333333333 -0.5
0.8333333333 -0.3333333333 -0.5
1.041666667 -0.3333333333 -0.5
1.25 -0.3333333333 -0.5
1.458333333 -0.3333333333 -0.5
1.666666667 -0.3333333333 -0.5
1.875 -0.3333333333 -0.5
2.083333333 -0.3333333333 -0.5
2.291666667 -0.3333333333 -0.5
2.5 0.5 0.5
2.5 0.5 -0.3333333333
2.5 0.5 -0.1666666667
2.5 0.5 0
2.5 0.5 0.1666666667
2.5 0.5 0.3333333333
2.5 0.3333333333 0.5
2.5 0.1666666667 0.5
2.5 0 0.5
2.5 -0.1666666667 0.5
2.5 -0.3333333333 0.5
2.5 0.3333333333 -0.3333333333
2.5 0.3333333333 -0.1666666667
2.5 0.3333333333 -6.938893904e-18
2.5 0.3333333333 0.1666666667
2.5 0.3333333333 0.3333333333
2.5 0.1666666667 -0.3333333333
2.5 0.1666666667 -0.1666666667
2.5 0.1666666667 -1.387778781e-17
2.5 0.1666666667 0.1666666667
2.5 0.1666666667 0.3333333333
2.5 0 -0.3333333333
2.5 0 -0.1666666667
2.5 0 0
2.5 0 0.1666666667
2.5 0 0.3333333333
2.5 -0.1666666667 -0.3333333333
2.5 -0.1666666667 -0.1666666667
2.5 -0.1666666667 0
2.5 -0.1666666667 0.1666666667
2.5 -0.1666666667 0.3333333333
2.5 -0.3333333333 -0.3333333333
2.5 -0.3333333333 -0.1666666667
2.5 -0.3333333333 0
2.5 -0.3333333333 0.1666666667
2.5 -0.3333333333 0.3333333333
0.2083333333 0.5 0.5
0.4166666667 0.5 0.5
0.625 0.5 0.5
0.8333333333 0.5 0.5
1.041666667 0.5 0.5
1.25 0.5 0.5
1.458333333 0.5 0.5
1.666666667 0.5 0.5
1.875 0.5 0.5
2.083333333 0.5 0.5
2.291666667 0.5 0.5
0.2083333333 -0.3333333333 0.5
0.4166666667 -0.3333333333 0.5
0.625 -0.3333333333 0.5
0.8333333333 -0.3333333333 0.5
1.041666667 -0.3333333333 0.5
1.25 -0.3333333333 0.5
1.458333333 -0.3333333333 0.5
1.666666667 -0.3333333333 0.5
1.875 -0.3333333333 0.5
2.083333333 -0.3333333333 0.5
2.291666667 -0.3333333333 0.5
0.2083333333 -0.1666666667 0.5
0.4166666667 -0.1666666667 0.5
0.625 -0.1666666667 0.5
0.8333333333 -0.1666666667 0.5
1.041666667 -0.1666666667 0.5
1.25 -0.1666666667 0.5
1.458333333 -0.1666666667 0.5
1.666666667 -0.1666666667 0.5
1.875 -0.1666666667 0.5
2.083333333 -0.1666666667 0.5
2.291666667 -0.1666666667 0.5
0.2083333333 0 0.5
0.4166666667 0 0.5
0.625 0 0.5
0.8333333333 0 0.5
1.041666667 0 0.5
1.25 0 0.5
1.458333333 0 0.5
1.666666667 0 0.5
1.875 0 0.5
2.083333333 0 0.5
2.291666667 0 0.5
0.2083333333 0.1666666667 0.5
0.4166666667 0.1666666667 0.5
0.625 0.1666666667 0.5
0.8333333333 0.1666666667 0.5
1.041666667 0.1666666667 0.5
1.25 0.1666666667 0.5
1.458333333 0.1666666667 0.5
1.666666667 0.1666666667 0.5
1.875 0.1666666667 0.5
2.083333333 0.1666666667 0.5
2.291666667 0.1666666667 0.5
0.2083333333 0.3333333333 0.5
0.4166666667 0.3333333333 0.5
0.625 0.3333333333 0.5
0.8333333333 0.3333333333 0.5
1.041666667 0.3333333333 0.5
1.25 0.3333333333 0.5
1.458333333 0.3333333333 0.5
1.666666667 0.3333333333 0.5
1.875 0.3333333333 0.5
2.083333333 0.3333333333 0.5
2.291666667 0.3333333333 0.5
0.2083333333 0.5 0.3333333333
0.4166666667 0.5 0.3333333333
0.625 0.5 0.3333333333
0.8333333333 0.5 0.3333333333
1.041666667 0.5 0.3333333333
1.25 0.5 0.3333333333
1.458333333 0.5 0.3333333333
1.666666667 0.5 0.3333333333
1.875 0.5 0.3333333333
2.083333333 0.5 0.3333333333
2.291666667 0.5 0.3333333333
0.2083333333 0.5 0.1666666667
0.4166666667 0.5 0.1666666667
0.625 0.5 0.1666666667
0.8333333333 0.5 0.1666666667
1.041666667 0.5 0.1666666667
1.25 0.5 0.1666666667
1.458333333 0.5 0.1666666667
1.666666667 0.5 0.1666666667
1.875 0.5 0.1666666667
2.083333333 0.5 0.1666666667
2.291666667 0.5 0.1666666667
0.2083333333 0.5 0
0.4166666667 0.5 0
0.625 0.5 0
0.8333333333 0.5 0
1.041666667 0.5 0
1.25 0.5 0
1.458333333 0.5 0
1.666666667 0.5 0
1.875 0.5 0
2.083333333 0.5 0
2.291666667 0.5 0
0.2083333333 0.5 -0.1666666667
0.4166666667 0.5 -0.1666666667
0.625 0.5 -0.1666666667
0.8333333333 0.5 -0.1666666667
1.041666667 0.5 -0.1666666667
1.25 0.5 -0.1666666667
1.458333333 0.5 -0.1666666667
1.666666667 0.5 -0.1666666667
1.875 0.5 -0.1666666667
2.083333333 0.5 -0.1666666667
2.291666667 0.5 -0.1666666667
0.2083333333 0.5 -0.3333333333
0.4166666667 0.5 -0.3333333333
0.625 0.5 -0.3333333333
0.8333333333 0.5 -0.3333333333
1.041666667 0.5 -0.3333333333
1.25 0.5 -0.3333333333
1.458333333 0.5 -0.3333333333
1.666666667 0.5 -0.3333333333
1.875 0.5 -0.3333333333
2.083333333 0.5 -0.3333333333
2.291666667 0.5 -0.3333333333
0.2083333333 -0.3333333333 -0.3333333333
0.4166666667 -0.3333333333 -0.3333333333
0.625 -0.3333333333 -0.3333333333
0.8333333333 -0.3333333333 -0.3333333333
1.041666667 -0.3333333333 -0.3333333333
1.25 -0.3333333333 -0.3333333333
1.458333333 -0.3333333333 -0.3333333333
1.666666667 -0.3333333333 -0.3333333333
1.875 -0.3333333333 -0.3333333333
2.083333333 -0.3333333333 -0.3333333333
2.291666667 -0.3333333333 -0.3333333333
0.2083333333 -0.1666666667 -0.3333333333
0.4166666667 -0.1666666667 -0.3333333333
0.625 -0.1666666667 -0.3333333333
0.8333333333 -0.1666666667 -0.3333333333
1.041666667 -0.1666666667 -0.3333333333
1.25 -0.1666666667 -0.3333333333
1.458333333 -0.1666666667 -0.3333333333
1.666666667 -0.1666666667 -0.3333333333
1.875 -0.1666666667 -0.3333333333
2.083333333 -0.1666666667 -0.3333333333
2.291666667 -0.1666666667 -0.3333333333
0.2083333333 0 -0.3333333333
0.4166666667 1.387778781e-17 -0.3333333333
0.625 -1.387778781e-17 -0.3333333333
0.8333333333 -1.387778781e-17 -0.3333333333
1.041666667 5.551115123e-17 -0.3333333333
1.25 1.387778781e-17 -0.3333333333
[...]
POINT_DATA 1225
SCALARS KDE_TALLY_TAG double 1
LOOKUP_TABLE default
2.413821924 
2.403887849 
2.38719581 
2.497004685 
2.434032149 
2.410980661 
2.416040925 
2.410311456 
2.359686141 
2.372543972 
2.384328177 
2.455386279 
2.393482914 
2.517353069 
2.370392022 
2.411915557 
2.367529456 
2.410137656 
2.460229738 
2.368749844 
2.395917168 
2.400688417 
2.375628004 
2.405688734 
2.466159446 
2.461273359 
2.452032398 
2.510893526 
2.444919473 
2.452325334 
2.45145375 
2.48165438 
2.384458966 
2.370236078 
2.422387577 
2.486306285 
2.474995149 
2.398421819 
2.457334802 
2.440021312 
2.439170732 
2.428485581 
2.386096007 
2.417908167 
2.428657483 
2.375620551 
2.433239103 
2.394278985 
2.428260901 
1.404592024 
2.359060799 
2.383040203 
2.250396118 
2.225191406 
2.140548769 
2.092348085 
1.978708576 
1.825291814 
1.755961089 
1.657485239 
1.495663012 
1.387811314 
1.428512679 
1.333556064 
1.355116227 
1.376901458 
1.425439856 
1.567657424 
1.693254074 
1.76476569 
1.857365901 
1.924263861 
2.002020843 
2.163505453 
2.210479963 
2.342805223 
2.303729075 
2.323274536 
2.461340217 
2.337592032 
2.320833447 
2.179255031 
2.112187834 
2.108447638 
2.008887759 
1.846027328 
1.733370248 
1.64143514 
1.463095196 
2.371995757 
2.320562038 
2.254047334 
2.242983778 
2.131207216 
2.030588443 
1.897303571 
1.84334666 
1.729715538 
1.686127225 
1.521888826 
2.454631801 
2.327526167 
2.279892268 
2.216430189 
2.159294459 
2.029752701 
1.942363581 
1.83474341 
1.747993036 
1.664195602 
1.552194649 
2.337821365 
2.349187225 
2.229764562 
2.251191925 
2.181091891 
2.057284495 
1.930429824 
1.859057776 
1.788274603 
1.604998323 
1.531971506 
2.472384325 
2.351569482 
2.258393644 
2.323847015 
2.100516077 
1.993566965 
1.932567024 
1.859755263 
1.722726838 
1.60726517 
1.502080574 
1.383362262 
1.549344787 
1.685418089 
1.758802058 
1.881049289 
1.904348991 
2.122875133 
2.128743209 
2.199214924 
2.272834547 
2.308933899 
2.33717565 
1.401515491 
1.404023227 
1.399394011 
1.3797834 
1.383690427 
2.390006592 
2.373609998 
2.304696493 
2.166052373 
2.11792548 
2.055605147 
1.996247008 
1.917429071 
1.696642088 
1.607764536 
1.525361425 
2.325617172 
2.328238202 
2.222413027 
2.185189563 
2.122576982 
2.090309135 
1.989864719 
1.872483253 
1.689250226 
1.669905533 
1.564118244 
2.383405079 
2.365842017 
2.303890034 
2.180310585 
2.142536926 
2.060000459 
2.027579602 
1.915757763 
1.726276353 
1.595554991 
1.534058246 
2.434841002 
2.333339486 
2.273473003 
2.192631986 
2.141027229 
2.020771064 
1.952421519 
1.866091306 
1.768073845 
1.621947392 
1.559055757 
2.407741285 
2.306807414 
2.232520874 
2.207581845 
2.117318034 
2.062307438 
1.899809495 
1.911085023 
1.76015927 
1.636728394 
1.52921354 
1.430903949 
1.380848737 
1.42271551 
1.360895313 
1.40319114 
1.411471792 
1.331215605 
1.369560154 
1.374055926 
1.389562056 
1.373973577 
1.316750421 
1.373473698 
1.397462803 
1.402661989 
1.332827477 
1.372121515 
1.362432809 
1.343398646 
1.444568169 
1.36548013 
1.379658844 
1.354762573 
1.329640961 
1.408343315 
1.397175595 
1.354743358 
1.381898825 
1.401872668 
1.426737046 
1.365251677 
1.370276283 
1.390482512 
1.334919542 
1.404238074 
1.394028434 
2.369537622 
2.370816368 
2.259365731 
2.19196907 
2.096735119 
2.060516918 
1.916596417 
1.858772731 
1.787256953 
1.711412102 
1.519966427 
2.348715386 
2.330693733 
2.335285966 
2.180656665 
2.156878038 
2.024117088 
2.02340019 
1.834025488 
1.794134924 
1.60484851 
1.492975146 
2.368895333 
2.320938121 
2.244818101 
2.177701911 
2.103822012 
2.073629175 
1.938525017 
1.808741934 
1.754835778 
1.614412663 
1.508597726 
2.434035977 
2.286674828 
2.27045832 
2.206637604 
2.053732624 
2.086120537 
1.966863026 
1.866209303 
1.732909239 
1.719364522 
1.518938683 
2.344690555 
2.335672931 
2.315299482 
2.19971751 
2.117997167 
2.0406953 
1.965480633 
1.879375231 
1.793146171 
1.648205381 
1.543363693 
2.344350352 
2.278187866 
2.287347891 
2.203497661 
2.139648099 
2.039055486 
1.91458774 
1.867623559 
1.738590149 
1.684460825 
1.550652751 
2.406732195 
2.30049853 
2.230969015 
2.265045826 
2.172693093 
2.133280275 
1.963371813 
1.867003282 
1.758933228 
1.622377512 
1.548402027 
2.363796292 
2.323556193 
2.241084348 
2.226238462 
2.133376274 
2.009158473 
1.907243787 
1.884393621 
1.765012122 
1.666212434 
1.569000526 
2.34209477 
2.381910978 
2.350297198 
2.102060064 
2.062236043 
1.991689591 
1.938322358 
1.83258468 
1.725554746 
1.661296122 
1.493087332 
2.428401621 
2.32961952 
2.30656989 
2.148089402 
2.153740342 
2.077151439 
1.941368896 
1.807354223 
1.769581469 
1.658029022 
1.491358239 
2.378905485 
2.48355555 
2.262263742 
2.220316534 
2.111462315 
2.055419923 
1.989765618 
1.87400081 
1.743404359 
1.610967446 
1.544060624 
2.372736121 
2.275910753 
2.235928676 
2.198623128 
2.189403185 
2.027880958 
1.919165774 
1.795394414 
1.766082962 
1.604889796 
1.544333043 
2.420819434 
2.340930932 
2.323930573 
2.221679726 
2.131515361 
2.032955691 
1.959831738 
1.860215404 
1.724661378 
1.664546374 
1.508766125 
2.323517671 
2.384952407 
2.24202908 
2.15570938 
2.097037259 
2.050641963 
1.939695769 
1.872469671 
1.763495858 
1.67825019 
1.520268877 
2.331157628 
2.342939435 
2.216087364 
2.125566979 
2.086363141 
2.077498855 
1.922754289 
1.897173797 
1.764566787 
1.63148784 
1.484137296 
2.38831294 
2.388095716 
2.277958036 
2.150866246 
2.175244908 
2.12012603 
1.98568578 
1.881665083 
1.682432277 
1.668521837 
1.505684502 
2.442026344 
2.391189997 
2.343291729 
2.242173479 
2.15446083 
2.066060299 
1.961316157 
1.854459468 
1.79921357 
1.650844552 
1.521104827 
2.375838707 
2.36425181 
2.256743245 
2.133199083 
2.089719354 
2.032023705 
1.941760942 
1.885991485 
1.651507163 
1.66214899 
1.551472481 
2.400972326 
2.319026627 
2.280160271 
2.204200533 
2.062493118 
2.014387026 
1.858659334 
1.891348719 
1.695747458 
1.598698035 
1.50753566 
2.387516084 
2.415879028 
2.287421167 
2.203594397 
2.097940331 
2.097221215 
2.016713121 
1.847559251 
1.744210893 
1.633275197 
1.511157827 
2.412506549 
2.372754862 
2.287528108 
2.198220732 
2.134088683 
2.086995575 
2.016596515 
1.888549989 
1.758562175 
1.63582865 
1.470789926 
2.376728692 
2.328208571 
2.260859315 
2.175063877 
2.146550326 
2.054760065 
1.916497539 
1.842257833 
1.795757317 
1.629804197 
1.547248255 
2.393422563 
2.236885721 
2.341675693 
2.228439256 
2.129534196 
2.003972374 
1.91957179 
1.908142585 
1.733068684 
1.613012259 
1.537640554 
2.413297032 
2.394694015 
2.293929114 
2.183496402 
2.116801877 
1.997796545 
1.959287369 
1.881912645 
1.759415653 
1.715640991 
1.530567091 
2.42223793 
2.334373503 
2.258624445 
2.234504756 
2.142048123 
1.995758012 
2.03789455 
1.8348854 
1.695403731 
1.615251492 
1.530327861 
2.461173139 
2.403868639 
2.35097184 
2.200627494 
2.139995982 
2.062240405 
1.966389994 
1.834800041 
1.69842548 
1.658315715 
1.541050529 
2.296200239 
2.332374087 
2.251200872 
2.200709058 
2.12074264 
2.029712668 
1.944682558 
1.869219484 
1.757205059 
1.686794398 
1.535898357 
2.32267117 
2.335292194 
2.282556788 
2.188201935 
2.062486327 
2.097271206 
1.948047274 
1.84605992 
1.781412296 
1.707851987 
1.495986843 
2.411256006 
2.391151427 
2.241024801 
2.232254845 
2.113755323 
2.052717294 
1.969452642 
1.835707929 
1.801670044 
1.64966579 
1.56261283 
2.387481424 
2.331332043 
2.288860402 
2.230646414 
2.177578794 
2.075329384 
1.932986375 
1.87285319 
1.764361329 
1.669092978 
1.53299513 
2.381650296 
2.375022818 
2.320094609 
2.140828791 
2.15165729 
2.060641874 
1.939497545 
1.83762835 
1.727419905 
1.623304733 
1.496758478 
2.414300295 
2.275257017 
2.193160611 
2.249496121 
2.141625138 
2.048654879 
1.939250438 
1.875503826 
1.661546408 
1.6526748 
1.559993416 
2.387780185 
2.29605982 
2.260182269 
2.284887245 
2.150200154 
2.061945335 
1.913213342 
1.871716035 
1.738200389 
1.653221844 
1.540377477 
2.401670122 
2.302909375 
2.222047622 
2.199005017 
2.14325688 
2.106166407 
1.916210411 
1.833960204 
1.765003094 
1.621195935 
1.531709077 
2.443763857 
2.375250496 
2.197462884 
2.186977676 
2.1817161 
2.032378843 
2.005777745 
1.856229645 
1.757859195 
1.685657209 
1.470455673 
2.392548626 
2.271717079 
2.303765939 
2.234594236 
2.163000122 
2.093292721 
1.969558374 
1.938553639 
1.745633841 
1.611018187 
1.537727963 
0.7771791445 
1.265106946 
1.198291403 
1.079582341 
1.022509566 
0.9742181969 
0.9594089864 
0.8832987576 
0.8706963404 
0.8477723909 
0.7916728227 
0.8174019815 
0.8423973294 
0.8158342536 
0.7838103271 
0.7865308671 
0.7828989817 
0.7584860668 
0.7952286396 
0.8332511197 
0.8575046786 
0.8459566449 
0.8864555838 
0.9088353802 
1.010248867 
1.017429959 
1.052684673 
1.179295404 
1.279981962 
1.269015048 
1.175982089 
1.099893386 
1.064663269 
0.9782434346 
0.9098742273 
0.9033266727 
0.8427733602 
0.8398135558 
0.8095453442 
0.816824435 
1.282706161 
1.159086326 
1.084946196 
1.038300419 
0.9584233913 
0.9493181931 
0.9027061228 
0.8573770082 
0.8248337362 
0.8421492824 
0.7840750774 
1.32849508 
1.216438723 
1.064722979 
1.101867158 
0.9882107535 
0.9471552245 
0.9110711312 
0.8715335554 
0.8565808125 
0.8185800741 
0.8150919302 
1.247154663 
1.188433839 
1.137039736 
0.9795278175 
0.9510151509 
0.9398641048 
0.8699579128 
0.8360536273 
0.8018230129 
0.7951247886 
0.8085807583 
1.272236789 
1.150217438 
1.068857708 
1.015375745 
0.9529730512 
0.9483764391 
0.9196630329 
0.8368180832 
0.8413054249 
0.8268887827 
0.7785069842 
0.7474904561 
0.7676933458 
0.7890262422 
0.8264981013 
0.8493439793 
0.8309596814 
0.9360855798 
0.9889782221 
1.027616278 
1.123445282 
1.119624833 
1.23157266 
0.7868013948 
0.7746346961 
0.7601803267 
0.7987608761 
0.7594476773 
1.248038039 
1.141950443 
1.120201483 
1.024506766 
0.9416643703 
0.9010000111 
0.8825427199 
0.8228486911 
0.8034943761 
0.7707323846 
0.7929746239 
1.287802509 
1.133091641 
1.096083918 
1.002567448 
0.9749086017 
0.8979958547 
0.8286377966 
0.8199094458 
0.8165463872 
0.763115516 
0.772736634 
1.30035634 
1.183295873 
1.092497491 
0.9885146917 
0.9726624253 
0.9647788425 
0.9049378802 
0.8529505827 
0.7907190388 
0.8401285147 
0.8083698268 
1.267145892 
1.167116779 
1.110389719 
1.021366819 
0.9384668555 
0.9303698091 
0.8965416799 
0.8532534811 
0.815732229 
0.804367147 
0.784954577 
1.247479173 
1.157760165 
1.092518965 
1.038391482 
0.9911063774 
0.9251736783 
0.9013276879 
0.8269386905 
0.8094138873 
0.7818674123 
0.7883080096 
0.7904228094 
0.7622284552 
0.7753693464 
0.7708602142 
0.8017955489 
0.8055613081 
0.7887824735 
0.7821606945 
0.7984321967 
0.7490688853 
0.8010417672 
0.7553519663 
0.8117415307 
0.810522152 
0.7810839912 
0.750298856 
0.7723918218 
0.760250866 
0.7646082035 
0.8104031969 
0.7703967278 
0.7740221725 
0.791337346 
0.7482815639 
0.7626640459 
0.7447179121 
0.7888488707 
0.7511834113 
0.7842059368 
0.8096979555 
0.7802613923 
0.7812202329 
0.7790361485 
0.7821476244 
0.830728974 
0.7810201713 
1.254802637 
1.193941881 
1.057353186 
1.062199259 
0.9467142565 
0.9299442592 
0.8659530755 
0.8529539219 
0.8320244044 
0.8514749366 
0.8088659643 
1.231820644 
1.190692719 
1.07959403 
1.046645682 
0.9910662193 
0.8951421797 
0.9547704234 
0.8460197657 
0.8361827771 
0.8346154939 
0.7817422379 
1.232416803 
1.229887254 
1.059100398 
1.014762453 
1.008991196 
0.9415744008 
0.9247761262 
0.836183048 
0.8220440675 
0.8316829346 
0.8027686043 
1.284202952 
1.165714935 
1.093985006 
1.009550244 
0.970276408 
0.9280394891 
0.8698823676 
0.9330114771 
0.8490231438 
0.8144192091 
0.7749046181 
1.274775815 
1.150120899 
1.04119295 
1.021073658 
0.9912857496 
0.955842299 
0.8880845389 
0.8152570491 
0.8315322528 
0.7941991572 
0.7892189168 
1.273445978 
1.161921258 
1.090606879 
1.007217748 
0.9729297512 
0.9657601324 
0.8927259464 
0.8541880816 
0.8440157526 
0.8321976917 
0.8190391225 
1.227793275 
1.144444215 
1.08305348 
1.030963291 
1.002838362 
0.9128618436 
0.9405299406 
0.8460161135 
0.8377089238 
0.7892932336 
0.7769041368 
1.234200655 
1.156329211 
1.084639066 
1.034019333 
0.9399988592 
0.9237480817 
0.9016541302 
0.8657766263 
0.8184601094 
0.8385014141 
0.8401690529 
1.303089 
1.172382482 
1.083073811 
0.9960769644 
0.9385034484 
0.9109407581 
0.8791960921 
0.8825117813 
0.82637871 
0.8279692185 
0.7883157515 
1.285716206 
1.211446403 
1.12653324 
1.020988924 
1.002102297 
0.9289671739 
0.9313547315 
0.899919768 
0.7902006274 
0.7730415387 
0.7588640299 
1.251030602 
1.174359694 
1.100039637 
1.010530367 
0.9656524729 
0.8965777122 
0.8449936001 
0.8487417338 
0.8140925124 
0.8249529698 
0.7752819844 
1.28814247 
1.165125344 
1.113170184 
1.03959891 
1.02563905 
0.9419762749 
0.8527594634 
0.8286095293 
0.8376582055 
0.8165027416 
0.789139533 
1.261513548 
1.178105641 
1.073544143 
1.019371504 
0.9594928698 
0.8965615721 
0.8397696444 
0.8849287544 
0.7864107852 
0.802293636 
0.8126960734 
1.328741925 
1.192243048 
1.095328514 
1.038052973 
0.9535930709 
0.8893245178 
0.8423884821 
0.8400312596 
0.7794376612 
0.828346603 
0.7868179079 
1.290167728 
1.184653779 
1.079828226 
1.054483464 
0.9739068647 
0.9579982661 
0.8774116591 
0.8846978096 
0.8129339839 
0.8149801923 
0.7754095096 
1.253394543 
1.193071662 
1.073847062 
1.049118018 
0.9271229798 
0.9278314457 
0.9002346812 
0.8389607635 
0.8335650481 
0.8210165698 
0.8225601513 
1.227205023 
1.191221919 
1.143640937 
1.030165592 
0.9751821544 
0.9126797398 
0.9255686298 
0.8480870727 
0.7724566816 
0.7954303752 
0.8192993552 
1.240644861 
1.119299487 
1.086980269 
0.9962171635 
0.9951265015 
0.9256660604 
0.8718385564 
0.8323914578 
0.8450909916 
0.8090090525 
0.8201847964 
1.280814101 
1.168967465 
1.090171272 
1.038641123 
0.9861069145 
0.9298939435 
0.8897967158 
0.8362884432 
0.78698956 
0.8304922147 
0.8042790001 
1.228129459 
1.148893815 
1.095761009 
1.002068483 
1.007690782 
0.9699275653 
0.9097424219 
0.8580292193 
0.8435119171 
0.8120014185 
0.7619644566 
1.284220751 
1.132084532 
1.085264658 
1.091044077 
0.9523933235 
0.9498509827 
0.9041326849 
0.8436921178 
0.8282055023 
0.8314802061 
0.7852386713 
1.28344169 
1.16523735 
1.090104558 
1.023310215 
1.00373927 
0.9210649272 
0.8662223631 
0.8406811219 
0.8854745011 
0.8097442881 
0.7973569745 
1.260064912 
1.219166553 
1.072178544 
1.064202366 
0.9654950756 
0.9064662639 
0.8984578727 
0.8306928496 
0.8174245921 
0.8155844232 
0.8078902714 
1.281709662 
1.17841915 
1.104543905 
1.019586349 
0.9311792493 
0.9401622707 
0.9307721776 
0.8281654761 
0.8306791319 
0.7920126113 
0.7676560275 
1.296971299 
1.172331022 
1.127135562 
1.057171934 
0.9981103395 
0.9197873923 
0.8401175028 
0.8371568744 
0.831624982 
0.8322589081 
0.817785114 
1.244313494 
1.167831863 
1.05740979 
0.9998776514 
1.000443728 
0.8991688249 
0.9080106394 
0.7978619001 
0.8583163779 
0.8167137871 
0.796416385 
1.195549667 
1.106977951 
1.082710735 
1.076420257 
0.9733404835 
0.9322083476 
0.8923210285 
0.8209272526 
0.8869841669 
0.7739372505 
0.7652932663 
1.250217377 
1.198889507 
1.157851046 
1.003522161 
0.9312509682 
0.9301620343 
0.9011692006 
0.8707038083 
0.8699382832 
0.8294365959 
0.8069838451 
1.239960113 
1.161333825 
1.134311123 
1.022074559 
1.016869071 
0.9161736396 
0.8632559746 
0.8800430786 
0.8324639368 
0.7777641317 
0.8462340213 
1.202059003 
1.213652871 
1.03745559 
0.9774153274 
0.9582328905 
0.9542709686 
0.9399961523 
0.8255739052 
0.8290212576 
0.8354109555 
0.7880049362 
1.278313881 
1.136387615 
1.062077101 
1.053492872 
0.9802219755 
0.8701917116 
0.8882838125 
0.868224398 
0.8234333289 
0.7788278789 
0.8347651288 
1.255819832 
1.15895766 
1.066916221 
0.985823358 
0.937298325 
0.914344992 
0.8852484301 
0.8320035069 
0.8156968062 
0.8101966694 
0.7978955808 
1.249201736 
1.219836328 
1.1121692 
0.9924757968 
0.9381198797 
0.9599802879 
0.8965856741 
0.8535636849 
0.8339299299 
0.7942906672 
0.8082617329 
1.208813967 
1.180054592 
1.047284626 
0.9912270339 
0.9085963946 
0.8813873981 
0.9038604895 
0.85993593 
0.8054990393 
0.846957368 
0.8103838232 
1.265848486 
1.133898393 
1.058151971 
1.035040596 
0.96864308 
0.9401156963 
0.8874581189 
0.8702299504 
0.8275865808 
0.8218367639 
0.7884188821 
1.278060792 
1.169839989 
1.097378832 
1.00290681 
1.002873125 
0.9114592777 
0.9132037111 
0.8796019082 
0.8225341234 
0.8246738607 
0.7728457058 
SCALARS KDE_ERROR_TAG double 1
LOOKUP_TABLE default
0.01675198183 
0.01686630158 
0.01651608421 
0.01634634241 
0.01648926486 
0.01616914673 
0.016301592 
0.01702596852 
0.01630475449 
0.01649172792 
0.01631086556 
0.01629203379 
0.01649889047 
0.0168377886 
0.01632212321 
0.01620620213 
0.01638307583 
0.01603704403 
0.01616492081 
0.01657569888 
0.01633377715 
0.01638082071 
0.01629415127 
0.01647264341 
0.01532724067 
0.01550546632 
0.01559495366 
0.01561588179 
0.01554309962 
0.01561013496 
0.01578310646 
0.01588379955 
0.01587676519 
0.01564830906 
0.01572423908 
0.01577985723 
0.0156209194 
0.01561465087 
0.01540403097 
0.01581441552 
0.01560699376 
0.01560765608 
0.01555632138 
0.01553476971 
0.01538147398 
0.01578578246 
0.01563606242 
0.01596255405 
0.01560157036 
0.01988620874 
0.01650420023 
0.0165028728 
0.01719691585 
0.01700267864 
0.01776872991 
0.01780553943 
0.01805762412 
0.01881966724 
0.01893784513 
0.01911176156 
0.01979321711 
0.02076800638 
0.01945971288 
0.02029945053 
0.01995694505 
0.01996571112 
0.01904977745 
0.01947868845 
0.01919039512 
0.0185921204 
0.01880570865 
0.01824829242 
0.01797155355 
0.01748908566 
0.01735560928 
0.01684945403 
0.01706306214 
0.016720322 
0.01591345827 
0.0160102471 
0.01614910229 
0.01660044731 
0.01701278636 
0.01713579839 
0.01758774821 
0.01796160642 
0.01797773417 
0.0188967886 
0.01924463809 
0.01597133511 
0.01649144113 
0.01659048666 
0.0169469099 
0.01718237859 
0.01701247715 
0.01771941565 
0.01818850229 
0.01866541563 
0.01895415905 
0.01914040364 
0.01570889707 
0.01661805491 
0.01649208005 
0.01693060018 
0.01667785252 
0.01757536086 
0.01820185958 
0.01859734555 
0.01871017009 
0.01894389388 
0.01913851125 
0.01590047729 
0.016531459 
0.0166241125 
0.01684119085 
0.01693873329 
0.0173263813 
0.01758404598 
0.0183606031 
0.01819159113 
0.01884174832 
0.01920297811 
0.01593204881 
0.01606641151 
0.01653486762 
0.01658525689 
0.01720418182 
0.01786251415 
0.01774373484 
0.01857960441 
0.01860483726 
0.01857472943 
0.01896522093 
0.02022479632 
0.01931518324 
0.01976336681 
0.01932875296 
0.01855981676 
0.01821479165 
0.01755450236 
0.01761052625 
0.01752697339 
0.01691458324 
0.01675025369 
0.01646359969 
0.01955590177 
0.0198174597 
0.02002531514 
0.01967678831 
0.01909616544 
0.01577433958 
0.01597229083 
0.01658762864 
0.01672183658 
0.01699029026 
0.01751698288 
0.01750241868 
0.01794100928 
0.01802641277 
0.01852264911 
0.01908040856 
0.01604727539 
0.01654521663 
0.01669570296 
0.01669165369 
0.01703950339 
0.01707819073 
0.0175874026 
0.01838419553 
0.01863462689 
0.01885103909 
0.01900616825 
0.0160929967 
0.01611777801 
0.01662350399 
0.01699162435 
0.01749391852 
0.01740715227 
0.01790432681 
0.01803748677 
0.01844426576 
0.01905007608 
0.01910208936 
0.01561010787 
0.01631467956 
0.01671155086 
0.01664180056 
0.0171822832 
0.01756558711 
0.01798042875 
0.01860425408 
0.01842365607 
0.0191843072 
0.0195713525 
0.01575299532 
0.01637959798 
0.01636451182 
0.016439518 
0.01703092061 
0.01737135137 
0.01789133061 
0.01800878888 
0.01787886775 
0.01891037974 
0.01906344173 
0.02008818124 
0.02019666766 
0.01990374376 
0.01972681096 
0.01996459716 
0.02001442911 
0.01961603305 
0.01980770735 
0.01980753228 
0.01972740018 
0.02009999237 
0.02086195299 
0.02085206019 
0.02050888038 
0.02049086116 
0.01964021895 
0.02023718234 
0.02080767894 
0.02114576189 
0.02079015188 
0.02051625773 
0.02051301929 
0.02121897058 
0.02103257231 
0.02045317814 
0.02052467684 
0.02054263182 
0.02083341327 
0.02105014994 
0.02110478899 
0.02034855753 
0.01982341634 
0.02025401199 
0.02030022484 
0.02027375732 
0.02009198916 
0.01654777077 
0.01668074717 
0.01740601947 
0.01750444421 
0.01748156957 
0.01800820962 