# vtk DataFile Version 3.0
MOAB 4.9.0
ASCII
DATASET UNSTRUCTURED_GRID
POINTS 133 double
0 -0.5 0.5
0 0.5 0.5
0 -0.1666666667 0.5
0 0.1666666667 0.5
0 0.5 -0.5
0 0.5 0.1666666667
0 0.5 -0.1666666667
0 -0.5 -0.5
0 0.1666666667 -0.5
0 -0.1666666667 -0.5
0 -0.5 -0.1666666667
0 -0.5 0.1666666667
0 -0.02126765447 0.1601017923
0 0.2660948883 -0.008333797701
0 0.05137122643 -0.20496936
0 -0.2273126189 -0.1089735135
0 0.2822987801 0.2636869323
0 0.2968265563 -0.2759939649
2.5 -0.5 -0.5
0.4166666667 -0.5 -0.5
0.8333333333 -0.5 -0.5
1.25 -0.5 -0.5
1.666666667 -0.5 -0.5
2.083333333 -0.5 -0.5
2.5 -0.5 0.5
2.5 -0.5 0.1666666667
2.5 -0.5 -0.1666666667
2.083333333 -0.5 0.5
1.666666667 -0.5 0.5
1.25 -0.5 0.5
0.8333333333 -0.5 0.5
0.4166666667 -0.5 0.5
0.6604523026 -0.5 -0.2104398808
0.9872447945 -0.5 -0.1805234126
1.376082357 -0.5 -0.1642906562
1.762295075 -0.5 -0.1310405967
2.125405153 -0.5 0.01187407585
1.825221566 -0.5 0.2109145329
1.495206587 -0.5 0.180014614
1.109189075 -0.5 0.1612079846
0.7287033311 -0.5 0.1265099118
0.3704148279 -0.5 -0.01398832816
2.5 0.5 -0.5
2.083333333 0.5 -0.5
1.666666667 0.5 -0.5
1.25 0.5 -0.5
0.8333333333 0.5 -0.5
0.4166666667 0.5 -0.5
2.5 -0.1666666667 -0.5
2.5 0.1666666667 -0.5
1.841446524 0.2098971156 -0.5
1.512160845 0.1806367922 -0.5
1.123529374 0.1643226638 -0.5
0.7370884795 0.1298390601 -0.5
2.131604786 0.01317692634 -0.5
0.6736966626 -0.2107137518 -0.5
1.004404349 -0.180174199 -0.5
1.389712794 -0.1610083834 -0.5
1.770820825 -0.1262162582 -0.5
0.3740197459 -0.01347911528 -0.5
2.5 0.5 0.5
2.5 0.5 -0.1666666667
2.5 0.5 0.1666666667
2.5 0.1666666667 0.5
2.5 -0.1666666667 0.5
2.5 0.1601017923 -0.02126765447
2.5 -0.008333797701 0.2660948883
2.5 -0.20496936 0.05137122643
2.5 -0.1089735135 -0.2273126189
2.5 0.2636869323 0.2822987801
2.5 -0.2759939649 0.2968265563
0.4166666667 0.5 0.5
0.8333333333 0.5 0.5
1.25 0.5 0.5
1.666666667 0.5 0.5
2.083333333 0.5 0.5
1.841446524 -0.2098971156 0.5
1.512160845 -0.1806367922 0.5
1.123529374 -0.1643226638 0.5
0.7370884795 -0.1298390601 0.5
2.131604786 -0.01317692634 0.5
0.6736966626 0.2107137518 0.5
1.004404349 0.180174199 0.5
1.389712794 0.1610083834 0.5
1.770820825 0.1262162582 0.5
0.3740197459 0.01347911528 0.5
0.6604523026 0.5 0.2104398808
0.9872447945 0.5 0.1805234126
1.376082357 0.5 0.1642906562
1.762295075 0.5 0.1310405967
2.125405153 0.5 -0.01187407585
1.825221566 0.5 -0.2109145329
1.495206587 0.5 -0.180014614
1.109189075 0.5 -0.1612079846
0.7287033311 0.5 -0.1265099118
0.3704148279 0.5 0.01398832816
0.2160764039 0.2927500606 0.02630951814
0.3273255527 0.02217706107 -0.1508534551
0.518427074 0.2243440449 -0.2251463085
0.5034689307 0.2527117133 0.1646009237
0.1827382594 0.337452203 0.3518511653
0.3857264817 0.04365047067 0.1538830251
0.1709786355 0.270390898 -0.2870618701
2.230311155 -0.2326143235 -0.328856796
2.26860404 0.1597673446 -0.2435820997
1.973394513 -0.2253895551 -0.2291754037
2.34600687 0.2903318405 0.2992280126
1.973543048 0.2504816055 0.2174074054
1.457182288 0.2038350701 0.04755564779
1.755960226 -0.04185893759 -0.170789808
1.699893355 0.274374485 -0.1891203225
1.441757917 0.05793372914 -0.2276141495
2.323995352 -0.2660777867 0.2776401639
2.023590565 -0.2411874384 0.2554839849
2.196707964 -0.06743509322 0.04461174831
1.832008362 -0.271456033 0.07437725365
1.77436924 0.03660920635 0.2002804577
0.246248588 -0.2476623952 0.09251891077
0.667868495 -0.149497211 -0.2389475107
0.7601258159 -0.1834941059 0.1016066447
1.068105102 -0.1933517158 -0.05765571445
0.7243252397 0.03323793411 0.2894783616
0.9686139822 0.2427986264 0.07809213549
1.137395501 -0.08002307266 0.1965134144
0.750680089 0.1652451456 -0.07804329693
2.092767239 0.190033868 -0.01055320539
1.982275844 0.1629306078 -0.2801247537
0.4810307622 -0.2392215729 0.2804051638
1.067118287 0.06550415605 -0.2067650557
0.2596182823 -0.2735364735 -0.2541667521
1.284517884 0.2861576676 -0.1931800842
1.448933244 -0.06258048862 0.2169171274
1.495151997 -0.2357333452 -0.1006049067
CELLS 436 2180
4 14 96 12 97
4 6 95 5 96
4 96 97 98 99
4 5 16 96 100
4 16 12 96 101
4 6 13 17 102
4 26 48 23 103
4 48 103 68 104
4 17 8 4 102
4 23 54 58 105
4 63 66 80 106
4 63 75 60 106
4 75 90 106 107
4 60 75 62 106
4 13 96 14 102
4 4 8 47 102
4 59 98 47 102
4 14 59 8 102
4 92 89 88 108
4 51 109 110 111
4 44 50 91 110
4 44 91 92 110
4 112 113 114 36
4 113 114 36 115
4 113 37 76 115
4 113 116 80 114
4 113 114 115 116
4 82 81 72 87
4 33 20 55 56
4 97 117 118 119
4 32 33 20 55
4 33 118 119 120
4 82 121 81 122
4 119 122 121 123
4 47 94 95 98
4 99 121 101 124
4 81 99 86 121
4 97 98 99 124
4 95 96 98 99
4 101 121 119 124
4 13 14 17 102
4 86 121 99 124
4 96 99 100 101
4 95 96 99 100
4 71 95 99 100
4 96 97 99 101
4 95 98 86 99
4 94 86 98 124
4 91 104 125 126
4 109 125 114 126
4 109 116 114 125
4 50 110 109 126
4 108 109 110 116
4 54 104 43 126
4 50 58 105 109
4 51 52 57 111
4 62 75 90 106
4 80 106 114 125
4 80 116 107 125
4 84 89 75 107
4 84 74 75 89
4 91 90 107 125
4 91 107 89 110
4 97 119 118 124
4 40 119 41 127
4 56 118 120 128
4 33 119 39 120
4 32 33 118 119
4 85 117 101 127
4 85 117 31 2
4 15 97 12 117
4 84 108 89 116
4 41 117 31 127
4 15 97 117 129
4 41 118 117 119
4 15 117 10 129
4 11 10 15 117
4 30 79 119 127
4 119 122 120 124
4 11 2 0 31
4 41 32 118 119
4 97 101 117 119
4 79 85 121 127
4 85 101 121 127
4 12 101 85 117
4 101 117 119 127
4 40 30 119 127
4 30 31 79 127
4 40 31 30 127
4 105 109 114 126
4 50 110 51 109
4 130 111 108 128
4 110 125 109 126
4 50 105 54 126
4 108 109 116 131
4 105 109 115 114
4 11 2 31 117
4 89 110 107 116
4 80 107 106 125
4 38 131 115 132
4 113 115 76 116
4 77 76 115 116
4 77 84 116 131
4 84 107 80 116
4 65 66 106 114
4 53 46 98 124
4 65 62 90 106
4 83 89 84 108
4 75 89 90 107
4 108 110 109 111
4 54 103 104 105
4 65 90 104 125
4 85 99 81 121
4 91 104 90 125
4 43 104 91 126
4 40 30 39 119
4 83 123 108 131
4 38 123 131 132
4 82 121 122 123
4 108 122 120 123
4 108 120 122 128
4 83 78 82 123
4 14 59 97 129
4 14 97 15 129
4 118 124 120 128
4 7 10 19 129
4 9 7 19 129
4 41 118 32 129
4 10 41 19 129
4 66 114 67 112
4 66 67 70 112
4 36 68 103 114
4 26 68 36 67
4 81 86 87 122
4 65 104 68 114
4 12 97 96 101
4 12 16 3 101
4 3 101 85 12
4 71 86 81 99
4 82 78 121 123
4 14 96 97 102
4 85 100 99 101
4 19 55 59 129
4 53 98 118 124
4 11 41 10 117
4 32 118 55 129
4 59 97 98 102
4 9 19 59 129
4 14 9 59 129
4 86 99 98 124
4 6 96 13 102
4 8 59 47 102
4 46 94 47 98
4 46 94 98 124
4 82 73 88 87
4 59 98 97 118
4 59 118 97 129
4 82 122 108 123
4 130 92 93 108
4 108 131 123 132
4 108 109 131 132
4 130 110 108 111
4 30 79 78 119
4 130 108 122 128
4 54 105 104 126
4 82 88 108 122
4 108 123 120 132
4 82 87 88 122
4 38 123 78 131
4 89 108 110 116
4 53 124 118 128
4 97 118 117 129
4 39 120 119 123
4 41 119 117 127
4 118 119 120 124
4 108 120 128 132
4 81 86 72 87
4 94 93 87 122
4 88 93 108 122
4 78 119 79 121
4 94 87 86 122
4 39 29 38 78
4 86 122 121 124
4 22 132 35 109
4 56 128 120 132
4 109 115 131 132
4 39 123 38 132
4 109 115 116 131
4 51 57 109 111
4 6 5 13 96
4 56 57 128 132
4 39 120 123 132
4 33 34 56 120
4 35 115 109 132
4 83 78 123 131
4 109 115 114 116
4 83 108 84 131
4 46 93 94 124
4 108 128 111 132
4 52 57 111 128
4 53 118 56 128
4 83 82 108 123
4 38 115 35 132
4 57 111 128 132
4 39 34 120 132
4 78 119 121 123
4 37 77 76 115
4 91 107 110 125
4 50 91 110 126
4 65 106 90 125
4 43 90 91 104
4 83 88 74 89
4 48 54 103 104
4 108 111 109 132
4 48 68 49 104
4 68 104 103 114
4 83 74 84 89
4 53 52 46 128
4 112 113 36 27
4 66 64 80 112
4 113 80 27 112
4 25 70 67 112
4 24 27 64 112
4 25 24 70 112
4 65 68 67 114
4 57 109 111 132
4 36 105 115 114
4 44 92 51 110
4 104 105 114 126
4 103 104 105 114
4 85 101 99 121
4 36 103 105 114
4 107 116 110 125
4 22 105 58 109
4 23 58 22 105
4 71 99 85 100
4 50 109 105 126
4 83 73 74 88
4 90 106 107 125
4 92 91 89 110
4 77 116 115 131
4 83 84 77 131
4 92 89 108 110
4 77 84 76 116
4 88 87 93 122
4 83 82 88 108
4 71 95 86 99
4 39 119 78 123
4 81 121 86 122
4 14 97 59 102
4 6 95 96 102
4 13 5 16 96
4 93 122 124 128
4 36 27 25 112
4 82 79 81 121
4 82 72 73 87
4 83 82 73 88
4 79 121 119 127
4 38 78 77 131
4 71 81 85 99
4 71 72 81 86
4 82 81 87 122
4 94 86 95 98
4 61 65 90 104
4 79 85 81 121
4 119 121 122 124
4 132 57 22 34
4 97 101 119 124
4 38 77 115 131
4 113 36 37 115
4 80 114 116 125
4 65 67 66 114
4 35 36 105 115
4 34 57 56 132
4 84 75 80 107
4 66 70 64 112
4 53 46 124 128
4 94 122 86 124
4 45 52 130 93
4 83 88 89 108
4 41 32 19 129
4 5 1 16 100
4 53 56 52 128
4 2 12 3 85
4 14 8 17 102
4 16 96 100 101
4 38 29 77 78
4 40 41 31 127
4 13 16 12 96
4 2 12 85 117
4 3 71 85 100
4 63 80 75 106
4 75 106 80 107
4 84 108 116 131
4 11 31 41 117
4 120 124 122 128
4 104 114 125 126
4 34 56 120 132
4 94 93 122 124
4 82 78 79 121
4 83 77 78 131
4 42 49 61 104
4 37 77 28 76
4 52 45 46 93
4 51 57 58 109
4 65 104 114 125
4 63 69 66 106
4 35 105 109 115
4 23 48 54 103
4 49 68 65 104
4 50 43 91 126
4 84 89 107 116
4 36 25 67 112
4 36 67 68 114
4 66 80 114 112
4 27 80 64 112
4 65 66 69 106
4 36 67 114 112
4 66 80 106 114
4 110 116 109 125
4 24 64 70 112
4 63 60 69 106
4 65 69 62 106
4 11 12 2 117
4 84 80 76 116
4 23 36 103 105
4 22 35 105 109
4 1 71 3 100
4 43 61 90 104
4 26 36 68 103
4 65 114 106 125
4 50 54 43 126
4 26 68 48 103
4 12 97 101 117
4 52 93 46 128
4 47 98 95 102
4 6 4 47 102
4 5 96 95 100
4 22 58 57 109
4 5 95 71 100
4 97 118 98 124
4 46 93 124 128
4 32 55 19 129
4 33 56 55 118
4 33 56 118 120
4 100 101 85 3
4 52 56 57 128
4 109 57 22 132
4 61 65 62 90
4 50 58 54 105
4 51 52 130 45
4 44 45 51 92
4 96 98 97 102
4 53 47 59 98
4 69 60 62 106
4 25 27 24 112
4 43 49 42 104
4 54 49 43 104
4 91 125 110 126
4 41 117 118 129
4 92 88 93 108
4 53 55 56 118
4 34 21 56 57
4 95 98 96 102
4 43 42 61 104
4 63 66 64 80
4 44 50 43 91
4 18 23 26 48
4 23 103 54 105
4 6 47 95 102
4 32 33 55 118
4 39 78 38 123
4 91 90 89 107
4 50 51 58 109
4 44 51 50 110
4 48 49 54 104
4 38 29 28 77
4 27 37 28 76
4 38 37 35 115
4 23 22 35 105
4 34 132 35 22
4 39 38 34 132
4 34 22 21 57
4 33 39 34 120
4 130 111 128 52
4 38 28 37 77
4 130 110 111 51
4 33 34 21 56
4 38 77 37 115
4 113 36 27 37
4 26 36 25 67
4 130 52 51 111
4 35 37 36 115
4 26 23 36 103
4 130 93 52 128
4 23 35 36 105
4 34 38 35 132
4 9 10 7 129
4 9 15 10 129
4 39 30 29 78
4 40 39 33 119
4 39 30 78 119
4 10 117 41 129
4 113 116 76 80
4 33 21 20 56
4 40 33 32 119
4 53 59 55 118
4 101 119 121 127
4 53 98 59 118
4 31 85 79 127
4 55 118 59 129
4 53 46 47 98
4 16 1 3 100
4 119 120 122 123
4 14 9 8 59
4 11 15 12 117
4 32 20 19 55
4 13 12 14 96
4 5 71 1 100
4 97 99 101 124
4 6 17 4 102
4 127 85 117 31
4 14 12 15 97
4 40 32 41 119
4 101 16 3 100
4 14 15 9 129
4 49 65 61 104
4 130 93 128 122
4 130 93 122 108
4 93 45 92 130
4 130 51 92 110
4 130 92 108 110
4 130 45 92 51
4 113 27 80 76
4 113 27 76 37
4 113 80 112 114
CELL_TYPES 436
10
10
10
10
10
10
10
10
10
10
10
10
10
10
10
10
10
10
10
10
10
10
10
10
10
10
10
10
10
10
10
10
10
10
10
10
10
10
10
10
10
10
10
10
10
10
10
10
10
10
10
10
10
10
10
10
10
10
10
10
10
10
10
10
10
10
10
10
10
10
10
10
10
10
10
10
10
10
10
10
10
10
10
10
10
10
10
10
10
10
10
10
10
10
10
10
10
10
10
10
10
10
10
10
10
10
10
10
10
10
10
10
10
10
10
10
10
10
10
10
10
10
10
10
10
10
10
10
10
10
10
10
10
10
10
10
10
10
10
10
10
10
10
10
10
10
10
10
10
10
10
10
10
10
10
10
10
10
10
10
10
10
10
10
10
10
10
10
10
10
10
10
10
10
10
10
10
10
10
10
10
10
10
10
10
10
10
10
10
10
10
10
10
10
10
10
10
10
10
10
10
10
10
10
10
10
10
10
10
10
10
10
10
10
10
10
10
10
10
10
10
10
10
10
10
10
10
10
10
10
10
10
10
10
10
10
10
10
10
10
10
10
10
10
10
10
10
10
10
10
10
10
10
10
10
10
10
10
10
10
10
10
10
10
10
10
10
10
10
10
10
10
10
10
10
10
10
10
10
10
10
10
10
10
10
10
10
10
10
10
10
10
10
10
10
10
10
10
10
10
10
10
10
10
10
10
10
10
10
10
10
10
10
10
10
10
10
10
10
10
10
10
10
10
10
10
10
10
10
10
10
10
10
10
10
10
10
10
10
10
10
10
10
10
10
10
10
10
10
10
10
10
10
10
10
10
10
10
10
10
10
10
10
10
10
10
10
10
10
10
10
10
10
10
10
10
10
10
10
10
10
10
10
10
10
10
10
10
10
10
10
10
10
10
10
10
10
10
10
10
10
10
10
10
10
10
10
10
10
10
10
10
10
10
10
10
10
10
10
10
10
10
10
10
10
10
10
10
10
10
10
10
10
10
10
10
CELL_DATA 436
SCALARS TALLY_TAG double 1
LOOKUP_TABLE default
2.387809798 
2.349223331 
2.347976604 
2.374410334 
2.409659002 
2.386298962 
1.503790906 
1.45574333 
2.411192358 
1.698311677 
1.473046712 
1.471109894 
1.597762615 
1.51163302 
2.441488678 
2.388848477 
2.351023903 
2.394362672 
1.944355955 
1.848297412 
1.831501279 
1.867699923 
1.62763656 
1.699825475 
1.716273817 
1.65409688 
1.751519433 
2.18483078 
2.23354301 
2.304210606 
2.197056564 
2.221867343 
2.209788303 
2.195191342 
2.330244136 
2.288540619 
2.256333968 
2.345433069 
2.376474522 
2.251929051 
2.41106191 
2.279049895 
2.349423866 
2.400396189 
2.311217227 
2.345800763 
2.336632531 
2.312562041 
1.651762006 
1.673550418 
1.708587001 
1.78696094 
1.858847957 
1.648030845 
1.769875917 
2.028126488 
1.547258134 
1.597204951 
1.714559101 
1.73755439 
1.80021171 
1.672377365 
1.750250243 
2.238430393 
2.261762496 
2.14778397 
2.17039015 
2.268635959 
2.334599965 
2.358301503 
2.400706363 
1.871573033 
2.315399303 
2.314439082 
2.302323394 
2.390995966 
2.387886675 
2.228707556 
2.19844932 
2.384020311 
2.299892546 
2.322107185 
2.288859011 
2.29377996 
2.384492949 
2.315709062 
2.226991946 
2.318812349 
2.251608221 
1.649089018 
1.829625328 
2.025262645 
1.748004078 
1.710060399 
1.908554007 
1.705762307 
2.39352775 
1.778894015 
1.636490856 
1.878808098 
1.798714936 
1.817663486 
1.83725012 
1.738014338 
1.492335141 
2.234523059 
1.453063203 
1.891981371 
1.693650398 
1.845402022 
1.621461421 
1.558056907 
2.293240299 
1.632796231 
1.693926138 
2.210501464 
1.990363766 
1.976880697 
2.162673166 
2.074831173 
2.08135904 
2.082923051 
2.388004846 
2.410106065 
2.15525087 
2.406795126 
2.403560337 
2.335007057 
2.391215363 
1.475858528 
1.459592843 
1.529501727 
1.472124075 
2.168341203 
1.472167778 
2.401806591 
2.450423624 
2.392339009 
2.32360864 
2.140556183 
2.403497752 
2.346545626 
2.325688321 
2.242227111 
2.382199995 
2.292693849 
2.362317137 
2.373754306 
2.39894939 
2.296008693 
2.40919291 
2.365198056 
2.2731804 
2.210607511 
2.139310337 
2.350200081 
2.388612289 
2.085281308 
2.038353556 
2.014710912 
1.941269961 
1.97929046 
2.206233169 
2.062002024 
1.633285092 
2.075958767 
2.011613002 
2.136010109 
2.036673251 
1.865955891 
2.228606472 
2.341016534 
2.134204102 
2.294446524 
2.179318384 
2.010383537 
2.22496542 
2.130264297 
2.064796725 
2.212676929 
2.16501947 
2.050590615 
2.221760195 
1.847702835 
2.072394283 
1.871123947 
1.997740511 
1.865206883 
1.915700637 
2.458868645 
2.041013845 
2.049788397 
2.132750535 
1.854863582 
2.066743208 
1.751843217 
1.923295653 
2.204749456 
1.967616976 
2.049867075 
2.154233621 
2.081612199 
1.856930313 
2.02543149 
2.04137362 
2.184717669 
1.800559507 
1.721813561 
1.77312537 
1.527616937 
1.651842265 
1.937744999 
1.508040102 
1.910824317 
1.412602731 
1.53088103 
1.894720945 
2.132220183 
1.6232346 
1.491741046 
1.61942208 
1.422419953 
1.480026726 
1.416388474 
1.442512879 
1.924527825 
1.687652722 
1.908326085 
1.605470998 
1.597142088 
2.30596429 
1.629462369 
1.730620736 
1.746552622 
1.775062388 
2.323706334 
1.750201152 
1.981734185 
1.587925682 
1.814468452 
1.835701655 
1.902406049 
1.873952217 
1.817950189 
2.065098329 
2.041989234 
2.268631331 
2.144033766 
2.204274039 
2.390911728 
2.391070844 
2.422375832 
2.170152526 
1.545629951 
2.236873154 
2.118329152 
2.066888601 
2.245857436 
1.958088242 
2.293679669 
2.254435512 
2.181777757 
2.335757443 
1.482327751 
2.300552847 
2.220143099 
1.93874763 
2.331942138 
1.885393187 
1.709738194 
1.659984746 
1.451146961 
1.744957058 
2.022342538 
1.734432633 
1.447603103 
2.17801855 
2.248187638 
2.122050446 
1.932186834 
2.320739245 
2.379789116 
2.132504395 
2.44159149 
2.406091207 
2.403582439 
1.98049566 
2.282766658 
2.396767715 
2.379678934 
2.385442225 
1.54527837 
1.628841085 
1.868457992 
2.334886496 
2.16396684 
1.651881595 
2.050408002 
2.169198829 
2.18831078 
1.98814824 
1.41059801 
1.829667517 
2.121280575 
1.889866178 
1.540114967 
1.405922172 
1.752538709 
1.582354015 
1.386978743 
1.707985214 
1.780621526 
1.510386588 
1.496806692 
1.528407761 
1.537113305 
1.451241824 
1.549206443 
1.525942744 
1.779079451 
1.432017882 
1.379905553 
1.430747732 
2.424811094 
1.728298851 
1.602470375 
1.777743168 
2.385211245 
1.520084587 
1.509239124 
1.542495996 
1.665277867 
1.413642605 
2.409590834 
2.135148908 
2.398806106 
2.367309909 
2.36686674 
1.84141791 
2.351384828 
2.292514896 
2.162849752 
2.287046829 
2.261451027 
2.190780011 
2.365868276 
2.067866145 
1.890092439 
1.445505159 
1.720826483 
2.046110981 
1.948682723 
2.395725417 
2.312365235 
1.399432842 
1.50951763 
1.500659083 
1.569608554 
1.707193258 
2.358321963 
1.998052236 
2.221172825 
2.061842149 
2.380240871 
1.496156852 
1.448978305 
1.749069604 
1.475806239 
1.637543409 
2.409731532 
2.222178133 
2.057742984 
1.732518748 
1.847771033 
1.874374891 
1.442541559 
1.943588838 
1.760058304 
1.812829837 
1.776811554 
1.897409278 
1.971181079 
1.982483769 
2.128435048 
2.073706168 
1.865211462 
1.944490302 
2.145612558 
1.837509182 
1.670608019 
1.451366743 
2.033845505 
1.756352071 
1.552600839 
2.113876084 
1.691868759 
1.903594844 
2.417472354 
2.425489645 
2.145277231 
2.203869684 
2.188178209 
2.364290161 
1.7632602 
2.127785279 
2.214007389 
2.277400205 
2.257331942 
2.281155434 
2.276031574 
2.334901657 
2.253457127 
2.474057246 
2.160424548 
2.368551951 
2.423361703 
2.275703327 
2.428129641 
2.411903312 
2.298888296 
2.411061217 
2.311464048 
2.442138246 
2.291732714 
2.418979379 
2.422909225 
1.414188918 
2.130632416 
2.089335502 
2.055880551 
1.951852123 
1.978067599 
1.990042734 
1.667285762 
1.704414651 
1.623814726 
SCALARS ERROR_TAG double 1
LOOKUP_TABLE default
0.009612693299 
0.01087565203 
0.01038539441 
0.01269668197 
0.01048056233 
0.01408707987 
0.01090671811 
0.01316174172 
0.01297471162 
0.01019972384 
0.01270393744 
0.01268308471 
0.01061374736 
0.01264413612 
0.01257573 
0.01026697784 
0.008967141088 
0.01021620872 
0.01039930861 
0.0117121693 
0.01221983212 
0.01232826261 
0.01199917905 
0.01175547137 
0.0131372525 
0.01062645782 
0.01195150494 
0.01013481318 
0.01010565349 
0.009086595108 
0.01052778644 
0.009646038846 
0.01040532353 
0.01001247596 
0.008858089318 
0.0107776294 
0.01099100858 
0.01071102595 
0.01050146062 
0.009757304437 
0.01379174196 
0.009963134171 
0.0111513641 
0.01101729726 
0.00964134204 
0.01163323337 
0.01015851928 
0.01022722501 
0.01248209388 
0.01233337219 
0.01060505232 
0.01279222314 
0.01075914528 
0.01160185467 
0.01156573116 
0.01035580558 
0.01093388607 
0.0108620291 
0.0113837108 
0.009921872853 
0.00936913365 
0.0118302192 
0.01153821264 
0.009257337257 
0.01004194245 
0.009495625228 
0.009682673496 
0.009575923911 
0.01084671257 
0.007560870954 
0.009709564905 
0.009595202987 
0.0100370944 
0.01067185306 
0.008725279355 
0.01092806606 
0.01079476602 
0.009290354864 
0.009856192451 
0.008912442555 
0.009199381829 
0.009244567919 
0.01056736629 
0.01021327541 
0.009526644251 
0.01068467749 
0.009626108826 
0.009685583584 
0.009396078678 
0.01140321105 
0.01101930387 
0.01192675878 
0.01219191118 
0.01200243514 
0.01039404794 
0.01158084512 
0.007774956157 
0.01090482899 
0.01139582434 
0.009839396892 
0.01223811546 
0.01029458855 
0.01192922222 
0.01144664779 
0.0118697562 
0.009534884537 
0.01140412331 
0.008855844468 
0.01044773202 
0.01186532851 
0.01231177675 
0.01220374941 
0.01025579501 
0.01146801671 
0.01139058567 
0.009279865685 
0.01023549413 
0.00978790257 
0.009227606191 
0.00927881095 
0.00920854048 
0.009886087907 
0.009712041546 
0.01154025757 
0.01013669145 
0.009890421132 
0.009696214039 
0.009928497363 
0.009146400011 
0.01390807149 
0.01749585155 
0.01084308897 
0.0115079942 
0.009842351482 
0.01229470401 
0.009911114692 
0.00971027361 
0.009760657535 
0.009792244494 
0.009821311203 
0.01092318885 
0.01034340925 
0.009608599187 
0.0101643903 
0.01008967434 
0.009612368562 
0.01030122935 
0.008915110358 
0.009056793993 
0.01041722439 
0.01211312242 
0.009114346109 
0.009202554402 
0.009853467052 
0.009452058842 
0.009797729854 
0.009527594626 
0.008505919758 
0.01187052223 
0.01014619202 
0.01066575554 
0.01199157159 
0.008646413888 
0.01063786549 
0.01206265977 
0.008392593831 
0.009490544709 
0.009261267249 
0.009545264745 
0.009816989181 
0.009346380702 
0.009493694081 
0.01001878758 
0.01043633634 
0.009671335781 
0.009283947269 
0.01043420902 
0.01049686293 
0.009274975193 
0.01037888018 
0.01076157361 
0.00955744182 
0.009393701519 
0.009800740765 
0.009074049449 
0.01050678447 
0.009113079052 
0.01053902667 
0.01061864992 
0.01204234039 
0.009080480277 
0.009448001548 
0.00884588626 
0.01141485732 
0.01063914917 
0.01039757597 
0.009888408334 
0.009095246816 
0.01006725758 
0.01025147967 
0.009029333509 
0.008891893184 
0.01069977516 
0.009776320563 
0.009926472417 
0.01009629819 
0.01072192515 
0.01143907373 
0.01309551382 
0.01119513405 
0.01015462869 
0.009492016237 
0.01222405486 
0.01122468378 
0.01401626 
0.01175179102 
0.009373124748 
0.009549739472 
0.01130697232 
0.0128873557 
0.01142331992 
0.0175034435 
0.0123336535 
0.01653417361 
0.01300646421 
0.01078761472 
0.0107054861 
0.01100279064 
0.0117011823 
0.01170509912 
0.01084645068 
0.01113473027 
0.01133233114 
0.01107681149 
0.01029024017 
0.009064662092 
0.01236623952 
0.009514408217 
0.01218998683 
0.01221126209 
0.01058801638 
0.01055573681 
0.0106944598 
0.01118322032 
0.01030548441 
0.008813839443 
0.01007243498 
0.008974336946 
0.01008752964 
0.01034121094 
0.01082728748 
0.0130918477 
0.01026168346 
0.01084100977 
0.01132876592 
0.009625216768 
0.009521262416 
0.01137577097 
0.009415077113 
0.009011958707 
0.01002661984 
0.009702734451 
0.009953088519 
0.01142014854 
0.0110930495 
0.01075324265 
0.009522469768 
0.009013126296 
0.009560665089 
0.01302748323 
0.0103510969 
0.01303700343 
0.01135288508 
0.009441404541 
0.009895822936 
0.01780152647 
0.00860896539 
0.01033937047 
0.01073830507 
0.009194043159 
0.009984246238 
0.01304810692 
0.009955610157 
0.009199467929 
0.01383376457 
0.01144041095 
0.009762191758 
0.009021649824 
0.01192349758 
0.008720563697 
0.01013410245 
0.0110394471 
0.01027759524 
0.01086929493 
0.008702118499 
0.01087992386 
0.01360439062 
0.008835998272 
0.01098525639 
0.01066619088 
0.01028350556 
0.01292780205 
0.01130000566 
0.009335611046 
0.01011186919 
0.01326988685 
0.01848417024 
0.01217335133 
0.01154724202 
0.01279563475 
0.01147473561 
0.01134011667 
0.01245562655 
0.0111903565 
0.01168260935 
0.01108555091 
0.01621139404 
0.01186417412 
0.01076781331 
0.01020865147 
0.01696686582 
0.01751046292 
0.01647052212 
0.009039007286 
0.01125985833 
0.01118566921 
0.01045275881 
0.01132021781 
0.009796544767 
0.01135751317 
0.01165358963 
0.01191481373 
0.01283044694 
0.009959166931 
0.009145444761 
0.008849942317 
0.01005047719 
0.01098058697 
0.009787907428 
0.009898989084 
0.01109808613 
0.008320200835 
0.008979129704 
0.009835708529 
0.008840543514 
0.009966084052 
0.01002446309 
0.0090113608 
0.01147936947 
0.01142923313 
0.01007821429 
0.01001374185 
0.01079164469 
0.008902456867 
0.01726518039 
0.012089892 
0.01153396943 
0.01055246343 
0.01253767418 
0.009352827564 
0.01009385267 
0.01055198962 
0.009621609298 
0.01060446395 
0.01079917775 
0.01304359295 
0.01109418923 
0.01095419119 
0.01206693465 
0.00888940081 
0.01027814008 
0.009026958384 
0.01164943359 
0.01067528821 
0.01126519971 
0.01240771041 
0.01004604396 
0.0110824015 
0.01195618451 
0.0102674941 
0.01044178717 
0.01040423118 
0.009543130275 
0.009769007072 
0.01142023836 
0.01089124364 
0.01143216716 
0.009451550398 
0.0103121422 
0.01128405132 
0.01189628085 
0.01118135735 
0.01224158059 
0.01013929967 
0.01098177662 
0.01013593635 
0.0108463819 
0.009944646759 
0.01023736135 
0.00927543432 
0.009640040098 
0.007872420301 
0.01003530695 
0.01122005934 
0.00957388503 
0.0099862457 
0.01040196057 
0.01081896719 
0.00934226353 
0.009463417583 
0.01010250629 
0.009311991371 
0.01264280052 
0.009932565853 
0.009718659856 
0.0098687635 
0.01001370007 
0.01119192449 
0.01107978892 
0.01091682536 
0.01330372723 
0.009453200298 
0.009983258413 
0.009843051563 
0.01104808876 
0.01037049951 
0.01184296426 
0.01132304021 
0.01096354123 
0.01122154159 
0.0111295959 
0.01199624253 
0.01009372851 
0.01158785463 
0.01162738177 
0.01206575606 
