# vtk DataFile Version 3.0
MOAB 4.9.0
ASCII
DATASET UNSTRUCTURED_GRID
POINTS 2025 double
0 0.5 0.5
5 0.5 0.5
0.2083333333 0.5 0.5
0.4166666667 0.5 0.5
0.625 0.5 0.5
0.8333333333 0.5 0.5
1.041666667 0.5 0.5
1.25 0.5 0.5
1.458333333 0.5 0.5
1.666666667 0.5 0.5
1.875 0.5 0.5
2.083333333 0.5 0.5
2.291666667 0.5 0.5
2.5 0.5 0.5
2.708333333 0.5 0.5
2.916666667 0.5 0.5
3.125 0.5 0.5
3.333333333 0.5 0.5
3.541666667 0.5 0.5
3.75 0.5 0.5
3.958333333 0.5 0.5
4.166666667 0.5 0.5
4.375 0.5 0.5
4.583333333 0.5 0.5
4.791666667 0.5 0.5
5 0.5 -0.5
5 0.5 -0.375
5 0.5 -0.25
5 0.5 -0.125
5 0.5 0
5 0.5 0.125
5 0.5 0.25
5 0.5 0.375
5 -0.5 0.5
5 0.375 0.5
5 0.25 0.5
5 0.125 0.5
5 0 0.5
5 -0.125 0.5
5 -0.25 0.5
5 -0.375 0.5
0 -0.5 0.5
0 -0.375 0.5
0 -0.25 0.5
0 -0.125 0.5
0 0 0.5
0 0.125 0.5
0 0.25 0.5
0 0.375 0.5
0 0.5 -0.5
0 0.5 0.375
0 0.5 0.25
0 0.5 0.125
0 0.5 0
0 0.5 -0.125
0 0.5 -0.25
0 0.5 -0.375
0 -0.5 -0.5
0 0.375 -0.5
0 0.25 -0.5
0 0.125 -0.5
0 0 -0.5
0 -0.125 -0.5
0 -0.25 -0.5
0 -0.375 -0.5
0 -0.5 -0.375
0 -0.5 -0.25
0 -0.5 -0.125
0 -0.5 0
0 -0.5 0.125
0 -0.5 0.25
0 -0.5 0.375
0 -0.375 0.375
0 -0.25 0.375
0 -0.125 0.375
0 0 0.375
0 0.125 0.375
0 0.25 0.375
0 0.375 0.375
0 -0.375 0.25
0 -0.25 0.25
0 -0.125 0.25
0 0 0.25
0 0.125 0.25
0 0.25 0.25
0 0.375 0.25
0 -0.375 0.125
0 -0.25 0.125
0 -0.125 0.125
0 0 0.125
0 0.125 0.125
0 0.25 0.125
0 0.375 0.125
0 -0.375 0
0 -0.25 0
0 -0.125 0
0 0 0
0 0.125 0
0 0.25 0
0 0.375 0
0 -0.375 -0.125
0 -0.25 -0.125
0 -0.125 -0.125
0 0 -0.125
0 0.125 -0.125
0 0.25 -0.125
0 0.375 -0.125
0 -0.375 -0.25
0 -0.25 -0.25
0 -0.125 -0.25
0 0 -0.25
0 0.125 -0.25
0 0.25 -0.25
0 0.375 -0.25
0 -0.375 -0.375
0 -0.25 -0.375
0 -0.125 -0.375
0 0 -0.375
0 0.125 -0.375
0 0.25 -0.375
0 0.375 -0.375
5 -0.5 -0.5
0.2083333333 -0.5 -0.5
0.4166666667 -0.5 -0.5
0.625 -0.5 -0.5
0.8333333333 -0.5 -0.5
1.041666667 -0.5 -0.5
1.25 -0.5 -0.5
1.458333333 -0.5 -0.5
1.666666667 -0.5 -0.5
1.875 -0.5 -0.5
2.083333333 -0.5 -0.5
2.291666667 -0.5 -0.5
2.5 -0.5 -0.5
2.708333333 -0.5 -0.5
2.916666667 -0.5 -0.5
3.125 -0.5 -0.5
3.333333333 -0.5 -0.5
3.541666667 -0.5 -0.5
3.75 -0.5 -0.5
3.958333333 -0.5 -0.5
4.166666667 -0.5 -0.5
4.375 -0.5 -0.5
4.583333333 -0.5 -0.5
4.791666667 -0.5 -0.5
5 -0.5 0.375
5 -0.5 0.25
5 -0.5 0.125
5 -0.5 0
5 -0.5 -0.125
5 -0.5 -0.25
5 -0.5 -0.375
4.791666667 -0.5 0.5
4.583333333 -0.5 0.5
4.375 -0.5 0.5
4.166666667 -0.5 0.5
3.958333333 -0.5 0.5
3.75 -0.5 0.5
3.541666667 -0.5 0.5
3.333333333 -0.5 0.5
3.125 -0.5 0.5
2.916666667 -0.5 0.5
2.708333333 -0.5 0.5
2.5 -0.5 0.5
2.291666667 -0.5 0.5
2.083333333 -0.5 0.5
1.875 -0.5 0.5
1.666666667 -0.5 0.5
1.458333333 -0.5 0.5
1.25 -0.5 0.5
1.041666667 -0.5 0.5
0.8333333333 -0.5 0.5
0.625 -0.5 0.5
0.4166666667 -0.5 0.5
0.2083333333 -0.5 0.5
0.2083333333 -0.5 -0.375
0.4166666667 -0.5 -0.375
0.625 -0.5 -0.375
0.8333333333 -0.5 -0.375
1.041666667 -0.5 -0.375
1.25 -0.5 -0.375
1.458333333 -0.5 -0.375
1.666666667 -0.5 -0.375
1.875 -0.5 -0.375
2.083333333 -0.5 -0.375
2.291666667 -0.5 -0.375
2.5 -0.5 -0.375
2.708333333 -0.5 -0.375
2.916666667 -0.5 -0.375
3.125 -0.5 -0.375
3.333333333 -0.5 -0.375
3.541666667 -0.5 -0.375
3.75 -0.5 -0.375
3.958333333 -0.5 -0.375
4.166666667 -0.5 -0.375
4.375 -0.5 -0.375
4.583333333 -0.5 -0.375
4.791666667 -0.5 -0.375
0.2083333333 -0.5 -0.25
0.4166666667 -0.5 -0.25
0.625 -0.5 -0.25
0.8333333333 -0.5 -0.25
1.041666667 -0.5 -0.25
1.25 -0.5 -0.25
1.458333333 -0.5 -0.25
1.666666667 -0.5 -0.25
1.875 -0.5 -0.25
2.083333333 -0.5 -0.25
2.291666667 -0.5 -0.25
2.5 -0.5 -0.25
2.708333333 -0.5 -0.25
2.916666667 -0.5 -0.25
3.125 -0.5 -0.25
3.333333333 -0.5 -0.25
3.541666667 -0.5 -0.25
3.75 -0.5 -0.25
3.958333333 -0.5 -0.25
4.166666667 -0.5 -0.25
4.375 -0.5 -0.25
4.583333333 -0.5 -0.25
4.791666667 -0.5 -0.25
0.2083333333 -0.5 -0.125
0.4166666667 -0.5 -0.125
0.625 -0.5 -0.125
0.8333333333 -0.5 -0.125
1.041666667 -0.5 -0.125
1.25 -0.5 -0.125
1.458333333 -0.5 -0.125
1.666666667 -0.5 -0.125
1.875 -0.5 -0.125
2.083333333 -0.5 -0.125
2.291666667 -0.5 -0.125
2.5 -0.5 -0.125
2.708333333 -0.5 -0.125
2.916666667 -0.5 -0.125
3.125 -0.5 -0.125
3.333333333 -0.5 -0.125
3.541666667 -0.5 -0.125
3.75 -0.5 -0.125
3.958333333 -0.5 -0.125
4.166666667 -0.5 -0.125
4.375 -0.5 -0.125
4.583333333 -0.5 -0.125
4.791666667 -0.5 -0.125
0.2083333333 -0.5 0
0.4166666667 -0.5 0
0.625 -0.5 0
0.8333333333 -0.5 0
1.041666667 -0.5 0
1.25 -0.5 0
1.458333333 -0.5 0
1.666666667 -0.5 0
1.875 -0.5 0
2.083333333 -0.5 0
2.291666667 -0.5 0
2.5 -0.5 0
2.708333333 -0.5 0
2.916666667 -0.5 0
3.125 -0.5 0
3.333333333 -0.5 0
3.541666667 -0.5 0
3.75 -0.5 0
3.958333333 -0.5 0
4.166666667 -0.5 0
4.375 -0.5 0
4.583333333 -0.5 0
4.791666667 -0.5 0
0.2083333333 -0.5 0.125
0.4166666667 -0.5 0.125
0.625 -0.5 0.125
0.8333333333 -0.5 0.125
1.041666667 -0.5 0.125
1.25 -0.5 0.125
1.458333333 -0.5 0.125
1.666666667 -0.5 0.125
1.875 -0.5 0.125
2.083333333 -0.5 0.125
2.291666667 -0.5 0.125
2.5 -0.5 0.125
2.708333333 -0.5 0.125
2.916666667 -0.5 0.125
3.125 -0.5 0.125
3.333333333 -0.5 0.125
3.541666667 -0.5 0.125
3.75 -0.5 0.125
3.958333333 -0.5 0.125
4.166666667 -0.5 0.125
4.375 -0.5 0.125
4.583333333 -0.5 0.125
4.791666667 -0.5 0.125
0.2083333333 -0.5 0.25
0.4166666667 -0.5 0.25
0.625 -0.5 0.25
0.8333333333 -0.5 0.25
1.041666667 -0.5 0.25
1.25 -0.5 0.25
1.458333333 -0.5 0.25
1.666666667 -0.5 0.25
1.875 -0.5 0.25
2.083333333 -0.5 0.25
2.291666667 -0.5 0.25
2.5 -0.5 0.25
2.708333333 -0.5 0.25
2.916666667 -0.5 0.25
3.125 -0.5 0.25
3.333333333 -0.5 0.25
3.541666667 -0.5 0.25
3.75 -0.5 0.25
3.958333333 -0.5 0.25
4.166666667 -0.5 0.25
4.375 -0.5 0.25
4.583333333 -0.5 0.25
4.791666667 -0.5 0.25
0.2083333333 -0.5 0.375
0.4166666667 -0.5 0.375
0.625 -0.5 0.375
0.8333333333 -0.5 0.375
1.041666667 -0.5 0.375
1.25 -0.5 0.375
1.458333333 -0.5 0.375
1.666666667 -0.5 0.375
1.875 -0.5 0.375
2.083333333 -0.5 0.375
2.291666667 -0.5 0.375
2.5 -0.5 0.375
2.708333333 -0.5 0.375
2.916666667 -0.5 0.375
3.125 -0.5 0.375
3.333333333 -0.5 0.375
3.541666667 -0.5 0.375
3.75 -0.5 0.375
3.958333333 -0.5 0.375
4.166666667 -0.5 0.375
4.375 -0.5 0.375
4.583333333 -0.5 0.375
4.791666667 -0.5 0.375
4.791666667 0.5 -0.5
4.583333333 0.5 -0.5
4.375 0.5 -0.5
4.166666667 0.5 -0.5
3.958333333 0.5 -0.5
3.75 0.5 -0.5
3.541666667 0.5 -0.5
3.333333333 0.5 -0.5
3.125 0.5 -0.5
2.916666667 0.5 -0.5
2.708333333 0.5 -0.5
2.5 0.5 -0.5
2.291666667 0.5 -0.5
2.083333333 0.5 -0.5
1.875 0.5 -0.5
1.666666667 0.5 -0.5
1.458333333 0.5 -0.5
1.25 0.5 -0.5
1.041666667 0.5 -0.5
0.8333333333 0.5 -0.5
0.625 0.5 -0.5
0.4166666667 0.5 -0.5
0.2083333333 0.5 -0.5
5 -0.375 -0.5
5 -0.25 -0.5
5 -0.125 -0.5
5 0 -0.5
5 0.125 -0.5
5 0.25 -0.5
5 0.375 -0.5
0.2083333333 0.375 -0.5
0.4166666667 0.375 -0.5
0.625 0.375 -0.5
0.8333333333 0.375 -0.5
1.041666667 0.375 -0.5
1.25 0.375 -0.5
1.458333333 0.375 -0.5
1.666666667 0.375 -0.5
1.875 0.375 -0.5
2.083333333 0.375 -0.5
2.291666667 0.375 -0.5
2.5 0.375 -0.5
2.708333333 0.375 -0.5
2.916666667 0.375 -0.5
3.125 0.375 -0.5
3.333333333 0.375 -0.5
3.541666667 0.375 -0.5
3.75 0.375 -0.5
3.958333333 0.375 -0.5
4.166666667 0.375 -0.5
4.375 0.375 -0.5
4.583333333 0.375 -0.5
4.791666667 0.375 -0.5
0.2083333333 0.25 -0.5
0.4166666667 0.25 -0.5
0.625 0.25 -0.5
0.8333333333 0.25 -0.5
1.041666667 0.25 -0.5
1.25 0.25 -0.5
1.458333333 0.25 -0.5
1.666666667 0.25 -0.5
1.875 0.25 -0.5
2.083333333 0.25 -0.5
2.291666667 0.25 -0.5
2.5 0.25 -0.5
2.708333333 0.25 -0.5
2.916666667 0.25 -0.5
3.125 0.25 -0.5
3.333333333 0.25 -0.5
3.541666667 0.25 -0.5
3.75 0.25 -0.5
3.958333333 0.25 -0.5
4.166666667 0.25 -0.5
4.375 0.25 -0.5
4.583333333 0.25 -0.5
4.791666667 0.25 -0.5
0.2083333333 0.125 -0.5
0.4166666667 0.125 -0.5
0.625 0.125 -0.5
0.8333333333 0.125 -0.5
1.041666667 0.125 -0.5
1.25 0.125 -0.5
1.458333333 0.125 -0.5
1.666666667 0.125 -0.5
1.875 0.125 -0.5
2.083333333 0.125 -0.5
2.291666667 0.125 -0.5
2.5 0.125 -0.5
2.708333333 0.125 -0.5
2.916666667 0.125 -0.5
3.125 0.125 -0.5
3.333333333 0.125 -0.5
3.541666667 0.125 -0.5
3.75 0.125 -0.5
3.958333333 0.125 -0.5
4.166666667 0.125 -0.5
4.375 0.125 -0.5
4.583333333 0.125 -0.5
4.791666667 0.125 -0.5
0.2083333333 0 -0.5
0.4166666667 0 -0.5
0.625 0 -0.5
0.8333333333 0 -0.5
1.041666667 0 -0.5
1.25 0 -0.5
1.458333333 0 -0.5
1.666666667 0 -0.5
1.875 0 -0.5
2.083333333 0 -0.5
2.291666667 0 -0.5
2.5 0 -0.5
2.708333333 0 -0.5
2.916666667 0 -0.5
3.125 0 -0.5
3.333333333 0 -0.5
3.541666667 0 -0.5
3.75 0 -0.5
3.958333333 0 -0.5
4.166666667 0 -0.5
4.375 0 -0.5
4.583333333 0 -0.5
4.791666667 0 -0.5
0.2083333333 -0.125 -0.5
0.4166666667 -0.125 -0.5
0.625 -0.125 -0.5
0.8333333333 -0.125 -0.5
1.041666667 -0.125 -0.5
1.25 -0.125 -0.5
1.458333333 -0.125 -0.5
1.666666667 -0.125 -0.5
1.875 -0.125 -0.5
2.083333333 -0.125 -0.5
2.291666667 -0.125 -0.5
2.5 -0.125 -0.5
2.708333333 -0.125 -0.5
2.916666667 -0.125 -0.5
3.125 -0.125 -0.5
3.333333333 -0.125 -0.5
3.541666667 -0.125 -0.5
3.75 -0.125 -0.5
3.958333333 -0.125 -0.5
4.166666667 -0.125 -0.5
4.375 -0.125 -0.5
4.583333333 -0.125 -0.5
4.791666667 -0.125 -0.5
0.2083333333 -0.25 -0.5
0.4166666667 -0.25 -0.5
0.625 -0.25 -0.5
0.8333333333 -0.25 -0.5
1.041666667 -0.25 -0.5
1.25 -0.25 -0.5
1.458333333 -0.25 -0.5
1.666666667 -0.25 -0.5
1.875 -0.25 -0.5
2.083333333 -0.25 -0.5
2.291666667 -0.25 -0.5
2.5 -0.25 -0.5
2.708333333 -0.25 -0.5
2.916666667 -0.25 -0.5
3.125 -0.25 -0.5
3.333333333 -0.25 -0.5
3.541666667 -0.25 -0.5
3.75 -0.25 -0.5
3.958333333 -0.25 -0.5
4.166666667 -0.25 -0.5
4.375 -0.25 -0.5
4.583333333 -0.25 -0.5
4.791666667 -0.25 -0.5
0.2083333333 -0.375 -0.5
0.4166666667 -0.375 -0.5
0.625 -0.375 -0.5
0.8333333333 -0.375 -0.5
1.041666667 -0.375 -0.5
1.25 -0.375 -0.5
1.458333333 -0.375 -0.5
1.666666667 -0.375 -0.5
1.875 -0.375 -0.5
2.083333333 -0.375 -0.5
2.291666667 -0.375 -0.5
2.5 -0.375 -0.5
2.708333333 -0.375 -0.5
2.916666667 -0.375 -0.5
3.125 -0.375 -0.5
3.333333333 -0.375 -0.5
3.541666667 -0.375 -0.5
3.75 -0.375 -0.5
3.958333333 -0.375 -0.5
4.166666667 -0.375 -0.5
4.375 -0.375 -0.5
4.583333333 -0.375 -0.5
4.791666667 -0.375 -0.5
5 0.375 0.375
5 0.25 0.375
5 0.125 0.375
5 0 0.375
5 -0.125 0.375
[...]
POINT_DATA 2025
SCALARS KDE_TALLY_TAG double 1
LOOKUP_TABLE default
0.3491014653 
0.243637779 
0.1900142761 
0.3280519799 
0.1836451773 
0.215743775 
0.2614391154 
0.2227211355 
0.3205290466 
0.2379996152 
0.2807385686 
0.2022329937 
0.2180425237 
0.2491070294 
0.2949734203 
0.2532990756 
0.2155771492 
0.2638148096 
0.2060850237 
0.3211234885 
0.1875482232 
0.2030054468 
0.2755607204 
0.1864865473 
0.2088629781 
0.160683434 
0.2575834794 
0.2434204181 
0.2233221961 
0.2565272604 
0.2429203488 
0.1959963364 
0.3031821477 
0.2503713154 
0.2763531462 
0.2190048171 
0.2583618138 
0.2263349894 
0.2288701414 
0.2866954687 
0.1147612125 
0.2821222915 
0.2095631254 
0.2313714546 
0.2092485382 
0.2981261204 
0.206166249 
0.262758423 
0.243086431 
0.2803802952 
0.1781028205 
0.3162380084 
0.2424240394 
0.2688656886 
0.2389124492 
0.3179525023 
0.2973484141 
0.193992632 
0.1735596248 
0.2216392439 
0.2519029206 
0.2741072292 
0.2438024309 
0.2250086515 
0.255205992 
0.2273479869 
0.3034954972 
0.2398540208 
0.3830676312 
0.3092919045 
0.2652504187 
0.2121590257 
0.2695562508 
0.2304936377 
0.2821263504 
0.231684168 
0.2972383286 
0.336279578 
0.2788274594 
0.287337685 
0.2532419763 
0.2041813941 
0.2460485006 
0.2691352777 
0.3204655943 
0.2644224171 
0.2792334706 
0.2774489087 
0.1810652278 
0.259361509 
0.1905049983 
0.2202583859 
0.244290292 
0.2571816885 
0.2194302606 
0.2588931982 
0.2742481387 
0.2993330338 
0.2420225687 
0.2736563866 
0.3860721596 
0.2439246993 
0.2111352383 
0.2258282752 
0.2321682219 
0.273359154 
0.2539867141 
0.2928531608 
0.2503960722 
0.2074469793 
0.3280013223 
0.2806403276 
0.1944806181 
0.2928838353 
0.2404680407 
0.2456780993 
0.2744284991 
0.2168414001 
0.1966594929 
0.3051001398 
0.2889880762 
0.2639154925 
0.3387107803 
0.2894765845 
0.2620149259 
0.2901401083 
0.3038864095 
0.2497751122 
0.1985120267 
0.2301971326 
0.3117192794 
0.2994710426 
0.3051814632 
0.3695052643 
0.2616358274 
0.2697053253 
0.2439678986 
0.2876066592 
0.2728209321 
0.2552068976 
0.1815677878 
0.2618676079 
0.2535464123 
0.2772575675 
0.2648374213 
0.2914991698 
0.2462926586 
0.2685340585 
0.2277911426 
0.1729835331 
0.2676761253 
0.233852705 
0.1909384942 
0.2088139147 
0.2963017456 
0.2636078636 
0.2388693442 
0.1518996032 
0.305961784 
0.2425545288 
0.1955998365 
0.1718773349 
0.3179739628 
0.2477125262 
0.1646638773 
0.286974832 
0.2799752517 
0.2538548565 
0.268584903 
0.3011934289 
0.1946198568 
0.2058195113 
0.2453436712 
0.228163894 
0.2560931903 
0.2771702783 
0.187675562 
0.2568741253 
0.2280884455 
0.1887077627 
0.2140065202 
0.167144782 
0.1612246445 
0.314110524 
0.2788945006 
0.1475953622 
0.197689096 
0.2698611929 
0.2220734477 
0.230066063 
0.20976536 
0.2673124876 
0.2539640106 
0.2315300978 
0.219243012 
0.1967844593 
0.2055571393 
0.2137746036 
0.2432233525 
0.2077892662 
0.2768915976 
0.2404401104 
0.1973074598 
0.2314342484 
0.2405741687 
0.2416245487 
0.1796301845 
0.1987278245 
0.2183024086 
0.2347398089 
0.2816903877 
0.2557391441 
0.2497772055 
0.2191296655 
0.3341238506 
0.2141853435 
0.2736889915 
0.1601741395 
0.2423996554 
0.2598547957 
0.2217731936 
0.2746005271 
0.1913433007 
0.2556534999 
0.2171235305 
0.1759234533 
0.2068127649 
0.2556637021 
0.2660858094 
0.1694903053 
0.2422817005 
0.192046775 
0.173539833 
0.2792710637 
0.2676566916 
0.2446366521 
0.2274106657 
0.231664514 
0.267103309 
0.2497529771 
0.2722344226 
0.2434463191 
0.3331806764 
0.2374211304 
0.2302766573 
0.2942886054 
0.1713716833 
0.1982917912 
0.2427975577 
0.2133415117 
0.2264018375 
0.214456059 
0.2042361318 
0.234360237 
0.2278052272 
0.207549346 
0.2878749686 
0.2508366842 
0.2006721014 
0.3094407015 
0.2024817011 
0.1753785252 
0.257200127 
0.2499878862 
0.218342585 
0.1796527292 
0.3327407241 
0.2811012176 
0.2559782104 
0.2740928931 
0.2036574257 
0.2483166711 
0.2500616497 
0.2137254128 
0.3146567025 
0.2322399347 
0.2816101832 
0.2249268141 
0.2454464677 
0.2224898354 
0.2921974497 
0.2883449762 
0.2880670636 
0.3102653678 
0.2260009738 
0.2398842293 
0.2110350283 
0.200631649 
0.3021959921 
0.227535655 
0.2260032783 
0.3188261105 
0.3018673557 
0.2661728415 
0.1530990338 
0.2070122653 
0.2246785827 
0.2527180948 
0.2347354934 
0.2088366609 
0.2721252377 
0.2396304915 
0.3265128308 
0.2155862427 
0.2912128556 
0.2261333762 
0.2463530523 
0.2673051302 
0.2297290687 
0.2943311958 
0.2616343032 
0.2423406583 
0.2185511317 
0.2707491271 
0.2688568617 
0.2889321456 
0.1821311653 
0.2513991133 
0.2581854198 
0.2656574786 
0.2441239275 
0.2219461169 
0.2953793873 
0.2903165938 
0.2765185056 
0.2257509473 
0.2510855251 
0.2118115148 
0.2484736156 
0.1822987407 
0.2060397087 
0.3230875286 
0.2910055863 
0.2004179068 
0.1885789546 
0.2490362713 
0.325478036 
0.2807285047 
0.1876544217 
0.2471306518 
0.3207962161 
0.2932260209 
0.1500939453 
0.2103274278 
0.1842617032 
0.3432076465 
0.3617625172 
0.3016327046 
0.239118813 
0.1598375754 
0.2157890406 
0.3099462109 
0.2442507099 
0.217041688 
0.2425226589 
0.2681460002 
0.2553793924 
0.3049294864 
0.2379640039 
0.2609173173 
0.2219092709 
0.2162308516 
0.2242439598 
0.1641604983 
0.1708469425 
0.1533051738 
0.2059002783 
0.2222669752 
0.2573918595 
0.2115953723 
0.2424442923 
0.2178600579 
0.2044495393 
0.3360519943 
0.2404211189 
0.204890071 
0.3176208292 
0.2137538032 
0.1690872703 
0.2156007831 
0.1825695906 
0.1770021003 
0.2240712773 
0.240104155 
0.2671430659 
0.2587294543 
0.1822593938 
0.3101544838 
0.2019390394 
0.3037088152 
0.2972934467 
0.1852044593 
0.191394063 
0.2677584361 
0.2138888108 
0.265692584 
0.3482051773 
0.2084619498 
0.1895902702 
0.2959989936 
0.3074802712 
0.2891449809 
0.2441825828 
0.3027554993 
0.248815737 
0.308929541 
0.138609524 
0.1655584911 
0.2449383435 
0.3250833165 
0.2687364533 
0.2439824329 
0.1288438594 
0.2821154796 
0.3761877651 
0.2131644885 
0.266135909 
0.1995993261 
0.3761257266 
0.2458287176 
0.3035861843 
0.25635846 
0.1701717397 
0.2941237159 
0.1930080877 
0.371710943 
0.1955319221 
0.1936197996 
0.3034636875 
0.1992258255 
0.2780139619 
0.3110293552 
0.3311839442 
0.1902950465 
0.3321866513 
0.2450154072 
0.2309422523 
0.1875131838 
0.1956811866 
0.2387846821 
0.2309638093 
0.1775264988 
0.3067982466 
0.2313327324 
0.2462517675 
0.2363291762 
0.2862406486 
0.2200074212 
0.2476561292 
0.236101897 
0.2008959388 
0.3256393604 
0.243784843 
0.208037122 
0.2461512772 
0.3123045129 
0.1656293527 
0.1447779916 
0.234916267 
0.2481417459 
0.2767547917 
0.2765383619 
0.2508024324 
0.3227091753 
0.2231158846 
0.2766675899 
0.234321838 
0.2846319019 
0.2546360231 
0.2976936868 
0.2448007273 
0.2399002466 
0.2321423634 
0.3594187253 
0.2269543141 
0.2234645375 
0.2463143647 
0.2588562514 
0.277138048 
0.417188875 
0.2709401364 
0.2372058752 
0.2441416566 
0.1660481821 
0.2197422263 
0.286875266 
0.2399932416 
0.3148627219 
0.2540669106 
0.1894473858 
0.1375667283 
0.2258862322 
0.2406326497 
0.2192204659 
0.2359221184 
0.2762636948 
0.3183624299 
0.3639174778 
0.1868872391 
0.2288665955 
0.1982959367 
0.2160049655 
0.2420531608 
0.1782385007 
0.3506998938 
0.4127237884 
0.2081324851 
0.2385038132 
0.3698780635 
0.1688431845 
0.2189070637 
0.293486063 
0.2331256142 
0.3624559042 
0.2685549067 
0.2820953627 
0.2280215746 
0.20943025 
0.3852171093 
0.2876253404 
0.2590053037 
0.2031156769 
0.2585913147 
0.2623518935 
0.3501260295 
0.2757897536 
0.2906941396 
0.24869274 
0.3512245158 
0.3144946038 
0.2479220229 
0.2762138619 
0.2390612911 
0.2799226327 
0.302642441 
0.2570568163 
0.2439249224 
0.2339657438 
0.2512441151 
0.2019422904 
0.2329157747 
0.2233380093 
0.2429835943 
0.1788721841 
0.2603263034 
0.2339279193 
0.3068754973 
0.2794516593 
0.265436011 
0.2458348202 
0.224379852 
0.210445858 
0.2999925047 
0.2658467178 
0.234336648 
0.2369659955 
0.2194317851 
0.2208601789 
0.2467971641 
0.2267157733 
0.2403282424 
0.3375522338 
0.18850956 
0.2311406501 
0.244365551 
0.2951157729 
0.2359487415 
0.2654360618 
0.2721387258 
0.2937825858 
0.2759618517 
0.2901388973 
0.2074198112 
0.2513736333 
0.3429504759 
0.2539437287 
0.2781923747 
0.2381712226 
0.1825014407 
0.1935668489 
0.2027569183 
0.1730196411 
0.2438945027 
0.1947003224 
0.2154128083 
0.1550876343 
0.1494141669 
0.2573380997 
0.2116220785 
0.2934284421 
0.2087170659 
0.2456661168 
0.2728605751 
0.1880095177 
0.1805675104 
0.2934200948 
0.2483003061 
0.2747958444 
0.2149435214 
0.2789908814 
0.3613532972 
0.176787828 
0.1842655261 
0.3321282053 
0.2839942761 
0.2669279298 
0.2464430489 
0.249843893 
0.273899409 
0.3468202635 
0.2713117422 
0.3013333963 
0.2198956917 
0.1802866431 
0.2448982265 
0.2841898795 
0.2569623806 
0.2671591846 
0.3120440197 
0.2483372613 
0.2848407656 
0.2168978589 
0.1794211282 
0.2858928175 
0.2375181678 
0.2141462598 
0.1675849385 
0.2854184769 
0.1912936042 
0.2454014995 
0.1831611908 
0.2734810873 
0.1839991143 
0.2626339973 
0.2767141738 
0.2272856921 
0.2235464658 
0.2154800813 
0.2331463345 
0.1949015415 
0.2843669073 
0.1992240815 
0.2697392765 
0.1847949218 
0.2671005039 
0.2900615995 
0.1989427722 
0.2292086957 
0.1827548125 
0.2281703289 
0.3231829497 
0.278108099 
0.2488623644 
0.3023056574 
0.2464530524 
0.2375155308 
0.2662408585 
0.3197574548 
0.2173766507 
0.2070061753 
0.2543162723 
0.2930011887 
0.3259339634 
0.2143167529 
0.2440156882 
0.2233845134 
0.2085333525 
0.2483359922 
0.2693447604 
0.2649197674 
0.2106908728 
0.2476086684 
0.2549421702 
0.285966736 
0.2678249947 
0.2465432937 
0.3003776921 
0.2336838019 
0.2369120595 
0.2458965333 
0.315331364 
0.2355624183 
0.2396024877 
0.240084324 
0.2091486045 
0.2694187215 
0.2990814614 
0.2993338672 
0.2205664963 
0.2010023967 
0.2743420998 
0.1988599965 
0.1987365442 
0.2319696727 
0.2178634746 
0.2092405478 
0.3607448124 
0.2403185444 
0.2283623404 
0.2663812364 
0.1964399643 
0.1829265211 
0.2086926845 
0.244873862 
0.2471867898 
0.2529302586 
0.2618045003 
0.2106447732 
0.1843756797 
0.2944457496 
0.2769928734 
0.2341266607 
0.3084400095 
0.1981069789 
0.2718760418 
0.2487314463 
0.2533387171 
0.2042038605 
0.224494152 
0.2380095048 
0.1721054673 
0.2109719947 
0.2131022794 
0.2518590505 
0.2116724373 
0.1823511241 
0.2121184126 
0.3315727679 
0.2800268046 
0.1787959159 
0.2843184476 
0.2049395165 
0.265955174 
0.3179506927 
0.2487759556 
0.2258534139 
0.1852147975 
0.2162722946 
0.2322126379 
0.3751242472 
0.3316623549 
0.2699647863 
0.2518609979 
0.2871740732 
0.1984563941 
0.2882097195 
0.3156196801 
0.2745293303 
0.194177804 
0.2938244925 
0.3285900377 
0.3173728641 
0.2635188333 
0.1756129962 
0.3086731141 
0.2881037898 
0.2641967031 
0.2668347671 
0.2232818596 
0.1946373275 
0.2928663261 
0.2563863907 
0.2313022802 
0.2723272365 
0.1661227951 
0.293786242 
0.2510652499 
0.3021539834 
0.210039851 
0.2383138953 
0.2566080019 
0.2465555286 
0.1853423905 
0.3087945257 
0.1943949546 
0.2577730345 
0.2651060356 
0.2393658852 
0.1730689144 
0.1929350954 
0.2163413583 
0.29931719 
0.3049633912 
0.2248082148 
0.2330565462 
0.3014755744 
0.1899403444 
0.230480047 
0.2300980629 
0.2543683943 
0.2773363846 
0.2350612151 
0.2421174964 
0.2168154598 
0.3157039449 
0.2055322789 
0.1230625763 
0.2322574261 
0.2728971353 
0.2696873943 
0.2445119924 
0.2406140482 
0.1979735538 
0.2333786294 
0.2715555578 
0.2124902064 
0.3452371178 
0.2010352075 
0.2555075104 
0.244072125 
0.3255330053 
0.2621064243 
0.2228641623 
0.2711769286 
0.2308609821 
0.2315598118 
0.2268172626 
0.2264663911 
0.3497502613 
0.2338974977 
0.1834724664 
0.1849745508 
0.4159788526 
0.2322374076 
0.310938474 
0.2469411056 
0.2395558807 
0.2420373749 
0.2517037356 
0.184647828 
0.2620942109 
0.2749263005 
0.1935075165 
0.2577147323 
0.2245751239 
0.1720450424 
0.286626691 
0.2108741529 
0.2306063056 
0.3357318006 
0.2093135218 
0.2440443698 
0.2327537795 
0.2037113579 
0.2233251313 
0.2344545034 
0.287062479 
0.2693384705 
0.2436403955 
0.3473622016 
0.1900894055 
0.2372671975 
0.2783560645 
0.2555411022 
0.2801606239 
0.2894547952 
0.2117864356 
0.1932194112 
0.2461744659 
0.26627845 
0.293338991 
0.1929059875 
0.323956625 
0.2077000244 
0.2152543693 
0.2149523114 
0.2206888128 
0.2486650303 
0.1423344555 
0.2566024134 
0.2059185128 
0.2260856376 
0.3235460859 
0.2929617722 
0.2034415291 
0.2369760586 
0.2251469901 
0.2233632786 
0.2096407894 
0.3311638485 
0.3620828453 
0.2701536195 
0.2053100198 
0.3274769564 
0.2188530918 
0.2094423417 
0.3021981258 
0.2507612113 
0.2533398911 
0.2911509663 
0.3745395456 
0.132968175 
0.3212624827 
0.2805104441 
0.3208681458 
0.2256107206 
0.2298405347 
0.2499534049 
0.1808064903 
0.3146628216 
0.1741994298 
0.2777056018 
0.259610444 
0.2017102061 
0.2359393967 
0.2256054064 
0.2337957419 
0.2548868963 
0.2148823503 
0.2514051276 
0.2254132043 
0.2022676142 
0.2746659882 
0.2545681734 
0.3204378606 
0.3105326643 
0.238610446 
0.2671669153 
0.1547623643 
0.1478419328 
0.2626082889 
0.217318214 
0.2411299516 
0.2203120687 
0.2979287084 
0.3459886893 
0.3062679055 
0.3441861987 
0.2522642691 
0.2299073751 
0.2535950535 
0.2234346508 
0.2413527181 
0.3150933747 
0.3770836312 
0.3006878483 
0.2652293167 
0.3162563219 
0.3472647295 
0.2719872628 
0.2787044838 
0.2896876562 
0.2142865443 
0.2423926814 
0.2832602601 
0.19195775 
0.2081541088 
0.229789491 
0.1829797593 
0.2747635537 
0.3999206673 
0.2972533434 
0.2466607051 
0.2833193653 
0.2123716024 
0.2302381078 
0.3089439497 
0.2620670081 
0.2283087487 
0.3207277841 
0.1644052622 
0.2668462638 
0.2318904986 
0.2065662152 
0.3358665432 
0.1998608257 
0.3360264219 
0.3226336934 
0.1796880759 
0.2285027714 
0.2174727014 
0.2303320871 
0.1909332526 
0.2508023117 
0.2087221192 
0.206191585 
0.2168371356 
0.1747721578 
0.2025181766 
0.209962364 
0.2621518816 
0.2433650056 
0.257449181 
0.2215133091 
0.2480436339 
0.290153894 
0.2588216869 
0.2424363091 
0.1361919721 
0.2181279158 
0.2399527083 
0.2710866489 
0.1696786041 
0.2412753889 
0.3068136467 
0.2542696366 
0.2160167522 
0.2035962592 
0.2058591428 
0.213889212 
0.2867383088 
0.2346331533 
0.3079334195 
0.258120321 
0.2785491114 
0.2557283565 
0.2011559191 
0.2676713132 
0.2264081098 
0.2490770272 
0.1973948446 
0.3133742046 
0.1791225487 
0.2290242931 
0.2381104799 
0.2962395283 
0.1769841868 
0.147335411 
0.2860443548 
0.1879093961 
0.1835509837 
0.234057367 
0.2546745703 
0.2765338937 
0.2176554758 
0.1952847875 
0.2711702609 
0.327311083 
0.2788136483 
0.1727930527 
0.2443292045 
0.2257390617 
0.2461867337 
0.2586190102 
0.2352268406 
0.2576595459 
0.1868710024 
0.1885671943 
0.2250824128 
0.3538731351 
0.2047998016 
0.2431873486 
0.1976484057 
0.2882358252 
0.2055557019 
0.2662628756 
0.2474177252 
0.3503127787 
0.1897520749 
0.2433102579 
0.2557253518 
0.1893832623 
0.2486709678 
0.2019541995 
0.2349030275 
0.2200057136 
0.3031221137 
0.2420671953 
0.2345654701 
0.3266219521 
0.3145027014 
0.165751419 
0.3172140533 
0.232157099 
0.3013884894 
0.1990531278 
0.1808492989 
0.2105339683 
0.184431538 
0.235108386 
0.3163234537 
0.3433567475 
0.1828737301 
0.2975170557 
0.3181040716 
0.2337229715 
0.2349156997 
0.2251501779 
0.3726396487 
0.2102452356 
0.2951418657 
0.179064923 
0.2501186148 
0.222458262 
0.2851939699 
0.1808115435 
0.275532837 
0.2593638177 
0.2047886407 
0.256042417 
0.2516183073 
0.2325555318 
0.2606070896 
0.1777084722 
0.2248430579 
0.3157416449 
0.2912522486 
0.2589824673 
0.2553620462 
0.1760251124 
0.2528198821 
0.2251407856 
0.2610766712 
0.2018901348 
0.2290648188 
0.1813442019 
0.2949472143 
0.2554688456 
0.3039278755 
0.3170763314 
0.2680619121 
0.2439178127 
0.2808144156 
0.249515343 
0.2224516914 
0.2707232499 
0.2207549313 
0.2244422862 
0.2947895463 
0.3213602144 
0.2042011112 
0.3507579615 
0.2167982823 
0.2919101374 
0.2797699257 
0.2800877299 
0.2532051703 
0.2143688231 
0.2070753903 
0.3275076377 
0.3011572575 
0.1676270989 
0.1389969791 
0.2531573085 
0.2449090777 
0.2982746317 
0.1162519366 
0.1792224827 
0.2941300106 
0.2951500072 
0.3041212276 
0.2584474101 
0.2370925429 
0.2134545414 
0.2476778893 
0.1925867957 
0.1998971831 
0.2147139871 
0.2269736568 
0.3270831914 
0.2907448662 
0.3057325918 
0.1585158236 
0.1726190397 
0.2454029589 
0.2383261306 
0.2202846829 
0.2988617683 
0.2888190118 
0.2872636823 
0.2248498942 
0.2676751288 
0.1732783811 
0.2142034066 
0.2194446278 
0.2325686525 
0.2180862683 
0.2201619157 
0.3124174721 
0.4049035963 
0.2287767921 
0.1517769113 
0.2810661936 
0.1324466021 
0.277034107 
0.2375087238 
0.2455763444 
0.2304160245 
0.2511824512 
0.2251326367 
0.1953936145 
0.2425405042 
0.2040771137 
0.2199339112 
0.3355451355 
0.276118132 
0.2698262916 
0.2726623613 
0.2316555339 
0.2041387619 
0.253107448 
0.2229864191 
0.2450056914 
0.2987333138 
0.2022593214 
0.2390666658 
0.1976252269 
0.2754507253 
0.2782492646 
0.2783440839 
0.2155769034 
0.3307207893 
0.2995582844 
0.3078308555 
0.1902542937 
0.2799483908 
0.3468821301 
0.2916641416 
0.2480170098 
0.2458806822 
0.2170096156 
0.2687706559 
0.3246573466 
0.2470160319 
0.2788467393 
0.2911220728 
0.3343801144 
0.3056864793 
0.2427485605 
0.4044737904 
0.2657278313 
0.1736234688 
0.3023329468 
0.2389038691 
0.2912618709 
0.1983446967 
0.1681407101 
0.2601734828 
0.2100477881 
0.2458529614 
0.2080364176 
0.2630570281 
0.251180891 
0.2650290522 
0.331679084 
0.2636709521 
0.2477254287 
0.2015312006 
0.2400951174 
0.3078071937 
0.1924699395 
0.2068430141 
0.3075069943 
0.2718271962 
0.300791555 
0.2209395188 
0.2971942093 
0.2679069423 
0.3358171653 
0.2754321644 
0.2841442307 
0.2643775376 
0.2885969462 
0.2206474929 
0.2465747634 
0.29837164 
0.2285341865 
0.2672077901 
0.3821825859 
0.3029178587 
0.2433369363 
0.2692078292 
0.3022944729 
0.1945437011 
0.2080920787 
0.2819122801 
0.2126508729 
0.2414312563 
0.2728473131 
0.2055126949 
0.2133460258 
0.2375672713 
0.2109916959 
0.1768636982 
0.2196549262 
0.272743214 
0.2338972297 
0.2600157773 
0.2190032692 
0.1963779183 
0.2551834159 
0.1909427624 
0.2661408535 
0.1845703049 
0.2079209161 
0.2428140033 
0.2079109932 
0.29087196 
0.1960290315 
0.2101407515 
0.2545243132 
0.2265273086 
0.2695686784 
0.1894793963 
0.269806637 
0.2157878702 
0.2282753767 
0.3150887809 
0.3041148466 
0.2444734911 
0.2830077652 
0.1739784104 
0.2283193448 
0.1825761627 
0.2105796626 
0.2209574791 
0.1979014232 
0.2038363795 
0.2075465447 
0.1707013227 
0.3214259609 
0.269022026 
0.2310905353 
0.2116639819 
0.2881610827 
0.2357885167 
0.3043789131 
0.3716901376 
0.2313567715 
0.3245804224 
0.2614964848 
0.2651478956 
0.1925887744 
0.2529255534 
0.3189004528 
0.2675012727 
0.2976528387 
0.2962794912 
0.2206944566 
0.2609805596 
0.3452940856 
0.3089598122 
0.1841770543 
0.307508571 
0.2699051394 
0.3152853173 
0.2060953527 
0.2925777097 
0.2174500452 
0.2493362267 
0.322915264 
0.2082821553 
0.2000016452 
0.292338323 
0.2163507456 
0.1935560457 
0.2265887963 
0.2557247871 
0.2368512273 
0.3443415663 
0.2550677635 
0.2776444452 
0.2890074718 
0.2353670474 
0.2058036374 
0.33675615 
0.2298959605 
0.1908089033 
0.302901498 
0.2120974198 
0.2726279808 
0.267436257 
0.2185580363 
0.2036113738 
0.2981305356 
0.2727355876 
0.325504466 
0.200117523 
0.203598921 
0.3494481651 
0.2577696439 
0.2704671507 
0.258791309 
0.2348805994 
0.2396477218 
0.2377806712 
0.2744591372 
0.2692430224 
0.254305029 
0.2978595183 
0.2376371371 
0.1890289297 
0.2730259128 
0.2444663804 
0.2117516372 
0.2063670119 
0.2621857839 
0.2182783568 
0.2509729406 
0.1792907446 
0.2247329017 
0.25555764 
0.2494633099 
0.2146360073 
0.2634013354 
0.2464929119 
0.2098477106 
0.1808449052 
0.21768721 
0.2577092355 
0.3024944416 
0.2648779225 
0.2373266612 
0.2000381816 
0.2377253207 
0.2392223344 
0.2270998957 
0.2710289118 
0.1766680623 
0.3011229988 
0.2255135971 
0.2471760369 
0.3121062137 
0.2556574352 
0.28544187 
0.2497103139 
0.20003511 
0.2349061852 
0.1737926522 
0.2075469204 
0.2252141912 
0.2751401734 
0.1918329664 
0.2850366565 
0.2066812683 
0.2030837208 
0.3096078046 
0.2368096678 
0.2906319867 
0.1998580454 
0.2566655222 
0.251761769 
0.2855647057 
0.3015694344 