# vtk DataFile Version 3.0
MOAB 4.9.0
ASCII
DATASET UNSTRUCTURED_GRID
POINTS 262 double
0 -0.5 0.5
0 0.5 0.5
0 -0.1666666667 0.5
0 0.1666666667 0.5
0 0.5 -0.5
0 0.5 0.1666666667
0 0.5 -0.1666666667
0 -0.5 -0.5
0 0.1666666667 -0.5
0 -0.1666666667 -0.5
0 -0.5 -0.1666666667
0 -0.5 0.1666666667
0 -0.02126765447 0.1601017923
0 0.2660948883 -0.008333797701
0 0.05137122643 -0.20496936
0 -0.2273126189 -0.1089735135
0 0.2822987801 0.2636869323
0 0.2968265563 -0.2759939649
5 -0.5 -0.5
0.3571428571 -0.5 -0.5
0.7142857143 -0.5 -0.5
1.071428571 -0.5 -0.5
1.428571429 -0.5 -0.5
1.785714286 -0.5 -0.5
2.142857143 -0.5 -0.5
2.5 -0.5 -0.5
2.857142857 -0.5 -0.5
3.214285714 -0.5 -0.5
3.571428571 -0.5 -0.5
3.928571429 -0.5 -0.5
4.285714286 -0.5 -0.5
4.642857143 -0.5 -0.5
5 -0.5 0.5
5 -0.5 0.1666666667
5 -0.5 -0.1666666667
4.642857143 -0.5 0.5
4.285714286 -0.5 0.5
3.928571429 -0.5 0.5
3.571428571 -0.5 0.5
3.214285714 -0.5 0.5
2.857142857 -0.5 0.5
2.5 -0.5 0.5
2.142857143 -0.5 0.5
1.785714286 -0.5 0.5
1.428571429 -0.5 0.5
1.071428571 -0.5 0.5
0.7142857143 -0.5 0.5
0.3571428571 -0.5 0.5
0.5730954936 -0.5 -0.2128042084
0.8548922315 -0.5 -0.181871047
1.192683156 -0.5 -0.1693893347
1.544585838 -0.5 -0.1656683665
1.900583149 -0.5 -0.1649258149
2.257486219 -0.5 -0.1647871715
2.614578253 -0.5 -0.1647610589
2.971676066 -0.5 -0.164725707
3.328576127 -0.5 -0.1645319481
3.683801975 -0.5 -0.1625922069
4.033300393 -0.5 -0.154573658
4.366532612 -0.5 -0.1230920182
4.678919209 -0.5 0.015395186
4.422286613 -0.5 0.2155370693
4.139015967 -0.5 0.1852518631
3.800129096 -0.5 0.1730677982
3.447752659 -0.5 0.169271973
3.091787007 -0.5 0.1682649822
2.734892622 -0.5 0.1680568044
2.377814474 -0.5 0.168010879
2.020769892 -0.5 0.1679610758
1.664084672 -0.5 0.167706261
1.309762646 -0.5 0.1654410964
0.9616590995 -0.5 0.1568794061
0.6298929884 -0.5 0.1247601451
0.3195456994 -0.5 -0.01467401054
5 0.5 -0.5
4.642857143 0.5 -0.5
4.285714286 0.5 -0.5
3.928571429 0.5 -0.5
3.571428571 0.5 -0.5
3.214285714 0.5 -0.5
2.857142857 0.5 -0.5
2.5 0.5 -0.5
2.142857143 0.5 -0.5
1.785714286 0.5 -0.5
1.428571429 0.5 -0.5
1.071428571 0.5 -0.5
0.7142857143 0.5 -0.5
0.3571428571 0.5 -0.5
5 -0.1666666667 -0.5
5 0.1666666667 -0.5
4.427482542 0.212376311 -0.5
4.145321867 0.1817252272 -0.5
3.807395339 0.1693335081 -0.5
3.455447289 0.1656452637 -0.5
3.099424231 0.1649206691 -0.5
2.742515319 0.1647861052 -0.5
2.385421931 0.1647609628 -0.5
2.028323286 0.1647263352 -0.5
1.671420249 0.1645354521 -0.5
1.316179988 0.1626101445 -0.5
0.966809124 0.1545754932 -0.5
0.6334121677 0.123143061 -0.5
4.681119171 0.01417429912 -0.5
0.5777203964 -0.2154823677 -0.5
0.8609921736 -0.1852297285 -0.5
1.199886636 -0.1730596774 -0.5
1.552246121 -0.1692667849 -0.5
1.908212032 -0.1682633786 -0.5
2.265107175 -0.1680564688 -0.5
2.622186033 -0.1680111929 -0.5
2.979233115 -0.1679631651 -0.5
3.335940252 -0.1677234563 -0.5
3.690280139 -0.1654728946 -0.5
4.038466876 -0.1569574459 -0.5
4.370160314 -0.1247802681 -0.5
0.3209030464 -0.01538988445 -0.5
5 0.5 0.5
5 0.1666666667 0.5
5 -0.1666666667 0.5
5 0.5 -0.1666666667
5 0.5 0.1666666667
5 0.02126765447 0.1601017923
5 -0.2660948883 -0.008333797701
5 -0.05137122643 -0.20496936
5 0.2273126189 -0.1089735135
5 -0.2822987801 0.2636869323
5 -0.2968265563 -0.2759939649
0.3571428571 0.5 0.5
0.7142857143 0.5 0.5
1.071428571 0.5 0.5
1.428571429 0.5 0.5
1.785714286 0.5 0.5
2.142857143 0.5 0.5
2.5 0.5 0.5
2.857142857 0.5 0.5
3.214285714 0.5 0.5
3.571428571 0.5 0.5
3.928571429 0.5 0.5
4.285714286 0.5 0.5
4.642857143 0.5 0.5
4.427482542 -0.212376311 0.5
4.145321867 -0.1817252272 0.5
3.807395339 -0.1693335081 0.5
3.455447289 -0.1656452637 0.5
3.099424231 -0.1649206691 0.5
2.742515319 -0.1647861052 0.5
2.385421931 -0.1647609628 0.5
2.028323286 -0.1647263352 0.5
1.671420249 -0.1645354521 0.5
1.316179988 -0.1626101445 0.5
0.966809124 -0.1545754932 0.5
0.6334121677 -0.123143061 0.5
4.681119171 -0.01417429912 0.5
0.5777203964 0.2154823677 0.5
0.8609921736 0.1852297285 0.5
1.199886636 0.1730596774 0.5
1.552246121 0.1692667849 0.5
1.908212032 0.1682633786 0.5
2.265107175 0.1680564688 0.5
2.622186033 0.1680111929 0.5
2.979233115 0.1679631651 0.5
3.335940252 0.1677234563 0.5
3.690280139 0.1654728946 0.5
4.038466876 0.1569574459 0.5
4.370160314 0.1247802681 0.5
0.3209030464 0.01538988445 0.5
0.5730954936 0.5 0.2128042084
0.8548922315 0.5 0.181871047
1.192683156 0.5 0.1693893347
1.544585838 0.5 0.1656683665
1.900583149 0.5 0.1649258149
2.257486219 0.5 0.1647871715
2.614578253 0.5 0.1647610589
2.971676066 0.5 0.164725707
3.328576127 0.5 0.1645319481
3.683801975 0.5 0.1625922069
4.033300393 0.5 0.154573658
4.366532612 0.5 0.1230920182
4.678919209 0.5 -0.015395186
4.422286613 0.5 -0.2155370693
4.139015967 0.5 -0.1852518631
3.800129096 0.5 -0.1730677982
3.447752659 0.5 -0.169271973
3.091787007 0.5 -0.1682649822
2.734892622 0.5 -0.1680568044
2.377814474 0.5 -0.168010879
2.020769892 0.5 -0.1679610758
1.664084672 0.5 -0.167706261
1.309762646 0.5 -0.1654410964
0.9616590995 0.5 -0.1568794061
0.6298929884 0.5 -0.1247601451
0.3195456994 0.5 0.01467401054
4.790258884 -0.3023659885 -0.3400474489
4.774604797 -0.2870275676 -0.1201573387
4.78229475 -0.03532897681 -0.06137201563
4.53287077 -0.2840735614 -0.2344155014
4.724551201 -0.02602755092 0.2102630883
4.577346802 -0.2817166746 0.1625784636
4.347290516 0.3265282214 0.2576821744
4.106458664 0.225063175 0.04116461053
4.351713181 0.137646541 0.04523732513
4.071191788 -0.06263770908 0.2224824876
4.334873676 -0.1762854606 0.2885322571
4.729424953 0.2329734266 0.189553082
1.31618011 0.05420336127 -0.1666666716
0.4471223354 0.21319592 -0.2314330339
0.6518213153 0.2951312661 0.1369820833
0.2018185556 0.1012089849 0.03964287788
0.2052669674 0.2780166566 -0.2782151699
4.696824074 0.2538617253 -0.2177402675
4.325645924 0.1939014345 -0.2964115143
4.366533279 -0.1666666716 -0.04103089869
4.791401863 -0.3136140108 0.2845866084
0.2188535184 0.3395372331 0.3516940475
0.3993776441 0.1651958227 0.2658503652
3.105012655 -0.05524018779 0.1694740057
2.709705591 -0.05532079563 0.1955540329
0.6380226612 -0.03820617497 0.1762816757
0.2922720313 -0.2452373952 0.161174953
2.30585289 -0.05436520651 0.2213166952
2.849031925 0.1666935384 0.2739420533
2.52547884 0.2269819379 0.06408610195
3.023747444 0.2392411679 0.07491210848
0.6334122419 0.04104765132 -0.1666669846
0.7737213373 0.2664768696 -0.2682875395
0.9289851189 0.2224793285 0.06270851195
0.6527149677 -0.2944671512 -0.1385660917
0.3732252419 -0.2083702385 -0.2683055699
0.6710007787 -0.3204292655 0.2577384412
0.9289851189 -0.2224796414 -0.06270851195
0.9668091536 -0.05152530968 0.1666663587
2.257486105 0.1666663587 0.05492914096
2.028323174 0.0549089089 -0.1666666716
2.257486105 -0.1666666716 -0.05492882431
1.671420217 0.05484505743 -0.1666666716
1.900583029 0.1666663587 0.05497528985
2.028323174 -0.0549089089 0.1666663587
2.30585289 0.05436520651 -0.2213170081
1.192683101 -0.1666666716 -0.05646320432
0.9668091536 0.05152530968 -0.1666666716
3.729218006 0.05647300184 -0.222043097
3.455447435 0.05521490052 -0.1666666716
3.937624454 0.28203246 -0.203332454
4.091478825 0.05386006832 -0.2379821241
4.106458664 -0.225063175 -0.04116461053
3.729218006 -0.05647331849 0.222043097
3.722620249 0.1945924461 0.05265633762
3.683801889 -0.1666666716 -0.05419735238
3.328576326 -0.1666666716 -0.05484410748
3.099423885 0.05497339368 -0.1666666716
3.368109703 0.194249779 0.0542874448
2.669396162 0.060121499 -0.2254162729
2.96284771 -0.1818236411 -0.06656374782
1.671420217 -0.05484537035 0.1666663587
1.31618011 -0.05420336127 0.1666663587
1.544585824 0.1666663587 0.05522248521
1.900583029 -0.1666666716 -0.05497528985
1.544585824 -0.1666666716 -0.05522280186
3.455447435 -0.05521521717 0.1666663587
1.192683101 0.1666663587 0.05646288767
2.555386782 -0.2486462891 -0.05410536751
4.225215435 -0.2677700818 -0.2658177912
CELLS 875 4375
4 123 192 193 194
4 122 123 193 194
4 34 122 126 193
4 31 60 192 195
4 122 196 194 197
4 198 199 200 201
4 117 118 152 196
4 152 196 197 202
4 117 196 152 203
4 18 34 126 192
4 88 123 102 192
4 18 126 88 192
4 31 192 102 195
4 99 100 105 204
4 191 205 206 207
4 87 205 191 208
4 6 4 87 208
4 119 124 178 209
4 75 178 179 209
4 194 200 209 210
4 124 194 203 209
4 62 141 36 202
4 59 197 195 211
4 35 140 152 212
4 60 122 197 212
4 84 188 99 187
4 59 60 195 197
4 16 3 165 213
4 99 85 100 188
4 191 207 206 214
4 191 206 166 214
4 127 191 166 214
4 65 145 215 216
4 127 165 213 214
4 153 151 214 217
4 151 214 217 218
4 66 146 216 219
4 220 159 221 216
4 220 215 216 222
4 159 216 146 219
4 220 160 159 216
4 120 124 121 203
4 153 166 128 206
4 206 217 207 223
4 206 223 205 224
4 206 223 224 225
4 154 217 206 225
4 153 214 206 217
4 217 218 223 226
4 73 226 48 227
4 217 228 229 230
4 64 39 38 143
4 20 103 48 226
4 103 226 223 227
4 207 217 218 223
4 186 185 171 231
4 71 46 45 150
4 177 198 200 203
4 47 151 46 228
4 72 47 46 228
4 108 232 107 233
4 186 234 232 235
4 231 232 233 236
4 108 232 233 237
4 87 190 191 205
4 190 206 205 224
4 103 223 101 227
4 229 230 238 239
4 217 226 223 229
4 217 223 225 230
4 101 205 223 224
4 207 223 218 227
4 193 194 195 197
4 125 121 122 196
4 194 200 203 209
4 121 124 194 203
4 102 192 194 195
4 65 145 144 215
4 93 240 181 241
4 242 199 240 243
4 113 243 240 244
4 199 245 246 247
4 181 241 240 246
4 215 248 249 250
4 182 249 241 250
4 183 249 222 251
4 16 191 213 214
4 215 249 222 250
4 65 215 64 248
4 110 248 249 252
4 110 248 111 249
4 163 199 198 201
4 200 211 201 244
4 180 177 199 200
4 96 184 185 237
4 76 77 91 180
4 156 253 149 254
4 69 149 253 254
4 234 253 235 255
4 69 253 68 256
4 69 254 253 257
4 234 256 253 257
4 199 244 201 245
4 199 240 244 247
4 63 245 244 247
4 200 243 211 244
4 62 211 59 244
4 107 234 106 256
4 99 187 204 234
4 99 204 106 234
4 187 234 186 235
4 187 204 234 255
4 234 235 253 256
4 160 215 145 216
4 62 63 142 245
4 220 222 160 215
4 160 222 174 250
4 174 222 183 250
4 160 215 222 250
4 184 183 222 251
4 63 143 245 258
4 163 162 199 245
4 58 244 112 247
4 63 244 58 247
[...]
CELL_DATA 875
SCALARS TALLY_TAG double 1
LOOKUP_TABLE default
2.174941372 
2.161679042 
2.175073342 
2.162555188 
2.159688827 
2.228676459 
2.128013557 
2.191399226 
2.144387717 
2.127641808 
2.186827281 
2.142552223 
2.172459564 
2.823267191 
2.982745378 
3.043763745 
2.990107613 
2.172574319 
2.214798936 
2.178082067 
2.140738409 
2.228074616 
2.181724112 
2.149853584 
2.202054276 
2.739239553 
2.168590376 
3.014717152 
2.785569336 
2.973408115 
2.920706071 
2.946989294 
2.408929253 
2.97695824 
2.93131333 
2.967016184 
2.462645274 
2.434787595 
2.398010674 
2.486775375 
2.436048447 
2.155569781 
2.937161966 
2.964743906 
2.942639172 
2.907188335 
2.897136772 
2.957536442 
2.954798537 
2.983039126 
2.878945257 
2.343651432 
2.88101733 
3.000736299 
2.95570347 
2.550319398 
2.873042899 
2.221097778 
2.946889187 
2.903744149 
2.573781281 
2.635958671 
2.578855543 
2.575683146 
2.994296216 
2.950037106 
2.969823931 
2.824997691 
2.870817829 
2.895685433 
2.902449716 
2.96262632 
2.188688061 
2.149787967 
2.154427899 
2.156940635 
2.144353125 
2.37797895 
2.299126984 
2.261204108 
2.218724985 
2.237650221 
2.283538451 
2.315926926 
2.290818246 
2.373321886 
2.978782373 
2.346474917 
2.34792717 
2.37708605 
2.362924293 
2.222313362 
2.18600555 
2.220820756 
2.498798969 
2.21347776 
2.722419576 
2.734111765 
2.66023274 
2.613394952 
2.707893998 
2.684217623 
2.225053479 
2.254665263 
2.230357799 
2.217623952 
2.19450376 
2.697884655 
2.714588227 
2.715709208 
2.677658321 
2.73850462 
2.674812132 
2.449295946 
2.257778781 
2.376093703 
2.34523366 
2.355255855 
2.386804956 
2.426293262 
2.261345506 
2.249404262 
2.251957628 
2.239511227 
2.247407197 
2.261212176 
2.140344413 
2.209912943 
2.243712353 
2.53686338 
2.560733461 
2.909793936 
2.652802173 
2.570778624 
2.558240177 
2.6036821 
2.672261612 
2.626082934 
2.238962325 
2.706044522 
2.700912517 
2.674357774 
2.963183525 
2.815596285 
2.85568676 
2.772138077 
2.802280088 
2.800309155 
2.807056991 
2.982425176 
3.007473685 
3.024972677 
2.962964428 
3.003399162 
3.058893059 
2.524716906 
2.470977297 
2.432949039 
2.516968732 
2.460569931 
2.372421042 
2.374228011 
2.564354031 
2.389860805 
2.4061136 
2.395540506 
2.485973196 
2.421754587 
2.456711799 
2.482159783 
2.981628369 
2.173825678 
2.889923313 
2.854413654 
2.893459081 
3.006551266 
2.942044799 
2.8853392 
2.851121078 
2.857524324 
2.783664687 
2.892678897 
2.968144176 
2.880038397 
2.890994487 
2.96088169 
2.96221478 
2.953318964 
2.949136293 
2.996764643 
3.032409073 
2.983223338 
3.032798411 
2.89458135 
2.967160876 
2.914752336 
2.894895996 
2.157159363 
2.164328311 
2.186104413 
2.171329673 
2.221758675 
2.165356569 
2.185776928 
2.177208892 
2.22108413 
2.155063404 
2.119777249 
2.249198415 
2.545137253 
2.51745011 
2.532892104 
2.219950294 
2.202140082 
2.235682794 
2.223825668 
2.181060037 
2.15026298 
2.200160574 
2.16999106 
2.189038759 
2.187408544 
2.167943685 
2.655286201 
2.537523164 
2.556492306 
2.4255093 
2.333279011 
2.644095786 
2.553476746 
2.528063138 
2.618117734 
2.627271623 
2.583842466 
2.320637463 
2.333761395 
2.312902338 
2.340355344 
2.355639746 
2.297189875 
2.14788763 
2.296702486 
2.316867555 
2.546256599 
2.560764395 
2.412400587 
2.566309051 
2.54641343 
2.561300422 
2.497354742 
2.603855952 
2.554070518 
2.162616877 
2.255187784 
2.217164324 
2.219697277 
2.412953809 
2.264492369 
2.294411861 
2.184483984 
2.231870973 
2.233652302 
2.163902315 
2.212985827 
2.647257081 
2.69099391 
2.665605523 
2.705010966 
2.37716533 
2.672860863 
2.498465489 
2.497382788 
2.707582532 
2.816430266 
2.715205288 
2.919256829 
2.873283703 
2.786089022 
2.816518921 
2.876703588 
2.830333011 
2.642391805 
2.730815749 
2.774628843 
2.753697003 
2.754995734 
2.775747972 
2.777084047 
2.278288473 
2.267204566 
2.183539164 
2.569874827 
2.269398951 
2.198435888 
2.159717659 
2.18780928 
2.256105401 
2.259288632 
2.25897043 
2.415572917 
2.973527586 
2.838143323 
2.307038229 
2.334902171 
2.424876309 
2.420261087 
2.374576688 
2.332010171 
2.320967223 
2.265112911 
2.52250081 
2.281645701 
2.26042995 
2.265378816 
2.206703924 
2.163984882 
2.255508177 
2.180578446 
2.272729821 
2.300842512 
2.166110315 
2.191405338 
2.14666299 
2.715717451 
2.255624996 
2.176120487 
2.834448828 
2.773346061 
2.559266581 
2.788578069 
2.758084909 
2.758142894 
2.692590527 
2.722431064 
2.469376646 
2.269393447 
2.241726213 
2.31620643 
2.26513682 
2.311057374 
2.299976455 
2.337393215 
2.286448705 
2.88713121 
2.259126289 
2.898784278 
3.066425062 
3.031775312 
3.012890308 
2.981926721 
2.977329577 
2.913684953 
2.881729014 
3.026159597 
3.02158039 
2.742052074 
2.945067211 
2.674431524 
2.915206443 
2.984066832 
2.896838487 
2.911917463 
2.843024382 
2.898551492 
2.748731007 
2.735106777 
2.831744857 
2.827271292 
2.618401744 
2.832972925 
2.79042108 
2.835511956 
2.823354087 
2.849136411 
2.881449065 
2.844863792 
2.824585561 
2.616682441 
2.730875525 
3.028270629 
2.854004467 
2.167819659 
2.191591987 
2.182557564 
2.173443198 
2.226102582 
2.219065358 
2.20770376 
3.013931553 
2.909100484 
2.241987773 
2.468216913 
2.590120108 
2.820859841 
2.806335016 
2.780055365 
2.22720658 
2.724999266 
3.022153059 
3.02843586 
3.017471183 
2.943393014 
2.894386063 
2.921370213 
2.4572188 
2.224787462 
2.4235061 
3.017822111 
2.169044483 
2.159583236 
2.23972308 
2.142791564 
2.178555741 
2.262129446 
2.213546139 
2.211295589 
2.523564656 
2.166567365 
2.881314061 
2.493622829 
2.971613243 
2.938573084 
2.954143426 
2.460095796 
2.629807498 
2.825570651 
2.2020577 
2.642020189 
3.012519227 
3.021985815 
2.775418022 
2.957633278 
2.760059996 
2.757621578 
2.902094575 
2.587705276 
2.507717418 
2.587846319 
2.616240751 
2.227781769 
2.379104247 
2.368676997 
2.387026378 
2.980186853 
2.534622282 
2.99547953 
2.227434504 
2.256902829 
2.897241974 
2.163224538 
2.180651013 
2.259558776 
2.287202332 
3.004937135 
2.25040661 
2.321436237 
2.25631825 
2.25294551 
2.269674347 
2.29853679 
2.257756207 
2.401038586 
2.338783611 
3.042839067 
2.360092945 
2.317852148 
2.929051217 
2.446516601 
2.987742751 
2.384846627 
2.486651182 
2.537758157 
2.388854046 
2.44594282 
2.479711873 
2.84832748 
2.915160357 
2.990717274 
2.909449357 
2.95456531 
2.876122465 
2.92220184 
3.004822015 
2.936729503 
2.854098852 
2.972099427 
2.97637959 
2.848900673 
2.955797353 
3.004636152 
2.768163684 
2.829048449 
2.82233152 
2.706885358 
2.972589404 
2.903800596 
2.930221465 
2.746127158 
2.199380081 
2.675925231 
2.773248665 
2.171803773 
2.785207302 
2.716575373 
2.489748173 
2.620091673 
2.660002775 
2.201146848 
2.183577046 
2.159000064 
2.227769276 
2.210996084 
2.974214233 
2.365764392 
2.321352912 
2.309250639 
2.184228819 
2.372248305 
2.173783568 
2.871238416 
2.165503257 
2.286384281 
2.224579607 
2.213659228 
2.146152616 
2.175098911 
2.198251938 
2.120729978 
2.835763649 
2.170658287 
2.140567436 
2.299645284 
2.374025293 
2.240276106 
2.187250243 
2.59139548 
2.605075345 
2.157448386 
2.485478304 
2.581094332 
2.450974812 
2.485611337 
2.448670711 
2.175541331 
2.303322857 
2.494724289 
2.586197169 
2.998699054 
2.185755645 
2.229430562 
2.183867177 
2.187944116 
2.233896686 
2.271873437 
2.249379032 
2.339531593 
2.208062055 
2.262775799 
2.43623891 
2.520676661 
2.48415834 
2.586319282 
2.535601796 
2.445042935 
2.311605158 
2.754336732 
2.714149505 
2.693743239 
2.73767817 
2.327188598 
2.545325519 
2.74434585 
2.843533615 
2.246031444 
2.904789848 
2.855253552 
2.196102207 
2.509347448 
3.093785429 
2.862915419 
2.886230378 
2.829306396 
2.618115791 
2.8915504 
2.566118753 
2.542460133 
2.290481442 
2.311970316 
2.392674781 
2.477753258 
2.49104158 
2.279199808 
2.362702997 
2.231337976 
2.36393514 
2.121284978 
2.175621909 
2.186559274 
2.15902215 
2.292815763 
2.12871811 
2.459682249 
2.512223391 
2.406033276 
3.037303503 
2.643239446 
2.315347837 
2.611827469 
2.632934458 
2.636599976 
2.67154853 
2.758322064 
2.806599023 
2.557967575 
2.3971668 
2.956684415 
2.538533494 
2.761100323 
2.150331789 
2.903067458 
2.64581622 
2.71441229 
2.881952132 
2.558168373 
2.536917571 
2.61807325 
2.758692304 
3.005809623 
3.006079365 
2.666227061 
2.171261404 
2.123014583 
2.845390015 
2.294853217 
2.327095696 
2.647946124 
2.163463187 
2.904983075 
2.46586963 
2.240146892 
2.45801881 
2.29930449 
2.15449017 
2.858203998 
2.208866909 
2.887503853 
2.340070413 
2.357019205 
3.04942423 
2.171497124 
2.1545262 
2.163902745 
2.837493793 
2.179180077 
2.131221189 
2.176468231 
2.184364524 
2.217951301 
2.153813752 
2.171688926 
2.164590461 
2.195364945 
2.194649588 
2.175000526 
2.168719327 
2.198620893 
2.158576441 
2.168394216 
2.187196478 
2.174198575 
2.132734423 
2.226148915 
2.169744292 
2.152086661 
2.149470507 
2.174752513 
2.261494527 
2.164765226 
2.207700586 
2.190777032 
2.230390655 
2.19392666 
2.318177926 
2.625120475 
2.165427505 
2.274923974 
2.814546251 
2.360867555 
2.415103888 
2.157082088 
2.232635707 
2.44798653 
2.197583662 
2.405102967 
2.3326065 
2.337311488 
2.34699562 
2.254737264 
2.583132334 
2.815277281 
2.73023825 
2.772346172 
2.724796127 
2.188136057 
2.835937551 
2.814424309 
2.820543513 
2.91505429 
2.88056017 
2.901002564 
2.92941384 
2.935207818 
2.76603512 
2.744446711 
2.65067153 
2.181171266 
2.630634408 
2.781173899 
2.82763293 
2.582326267 
2.470152199 
2.607515965 
2.780487392 
2.797566489 
2.675570555 
2.484128242 
2.6105283 
2.182432383 
2.288667519 
2.293818897 
2.273802702 
2.300571972 
2.208703485 
2.19717205 
3.014248018 
3.025263319 
2.972837492 
2.892653383 
2.3567734 
2.174555058 
2.385613486 
2.466147821 
2.179561691 
2.416598188 
2.432246797 
2.166165214 
2.78262401 
2.739779338 
2.937646722 
2.950281226 
3.001722112 
3.042636055 
3.015239284 
3.016110384 
2.139533937 
2.97547196 
2.822231744 
2.204206927 
2.940348153 
2.989506534 
2.660311128 
2.840645011 
2.488004336 
3.014867879 
2.581842671 
2.578343579 
2.453636549 
2.856824041 
2.492781832 
2.447322321 
2.999078944 
2.828017088 
2.849329962 
2.249868557 
2.243557614 
2.43578762 
2.164547074 
2.296637681 
2.425236559 
2.144491649 
2.19035861 
2.134822148 
2.159656111 
2.686577293 
2.808034432 
2.5874334 
2.73210818 
2.541000735 
2.533599826 
2.525467728 
2.45742877 
2.283293412 
2.336321835 
2.177308165 
2.160631946 
2.512378096 
2.209252383 
2.141498991 
2.166646001 
2.203700062 
2.27255808 
2.32728101 
2.27199899 
2.361951365 
2.398860714 
2.311746404 
2.291940557 
2.475423977 
2.378763943 
2.506630155 
2.657080337 
2.188386202 
2.633153778 
2.465587817 
2.887845141 
2.87782688 
3.031227709 
2.93036261 
2.226413883 
2.693087407 
2.985484126 
3.011846501 
2.994679431 
2.989515758 
2.927657596 
2.900641878 
2.981607912 
2.931831019 
2.19967085 
2.19495845 
2.689189996 
2.21862515 
2.987978696 
2.364845062 
2.662518138 
2.255215451 
2.545034537 
2.448305453 
2.251307378 
2.373371739 
2.200196997 
2.19726127 
2.130502689 
2.548243399 
2.139764427 
2.193838643 
2.171086506 
2.183938824 
2.186079061 
2.189219408 
2.241779252 
2.235726746 
2.291093864 
2.408001201 
2.83552344 
2.206655467 
2.622561627 
2.830991181 
2.936275387 
2.222503694 
2.649604116 
3.001036692 
2.983057609 
2.212088386 
2.259551448 
2.280805342 
2.202708021 
2.186870109 
2.192393516 
2.18493571 
2.422459496 
2.440322317 
2.409011982 
2.4437679 
2.411293687 
SCALARS ERROR_TAG double 1
LOOKUP_TABLE default
0.01212621721 
0.0117100233 
0.0120355412 
0.009373553757 
0.009643682995 
0.009748122716 
0.009321955807 
0.009922710447 
0.009736508468 
0.01163609305 
0.009324001878 
0.01150231658 
0.00941602681 
0.007871978897 
0.007164032711 
0.008031631693 
0.008707117095 
0.01005405926 
0.009214876795 
0.008579575076 
0.009142651353 
0.009222319497 
0.009843464862 
0.00947516158 
0.01009380411 
0.007796140605 
0.009711210846 
0.009925337265 
0.007641352786 
0.008322204188 
0.0093021863 
0.007779325923 
0.007273866433 
0.009401333087 
0.008943111229 
0.007638256892 
0.007253168435 
0.008903660062 
0.01000011876 
0.008000079599 
0.009991330573 
0.008860344168 
0.009436890102 
0.007272495822 
0.008735760958 
0.008673036841 
0.007802059398 
0.008742048014 
0.007527339417 
0.009281284745 
0.008751968646 
0.00839732239 
0.009578201475 
0.008449311563 
0.007328217954 
0.008072659994 
0.007649429172 
0.009802919242 
0.008270429396 
0.009015157214 
0.008006857433 
0.008109662586 
0.008972611908 
0.008899719596 
0.007473089545 
0.008353918653 
0.008656696629 
0.009686961603 
0.008305700557 
0.008500322954 
0.0097326238 
0.0069820888 
0.009966107454 
0.01028331289 
0.008260212886 
0.009384588957 
0.008799057513 
0.007400322834 
0.00797964785 
0.01000898555 
0.008205101484 
0.008674944263 
0.008841379646 
0.008865580139 
0.008525885192 
0.007594036431 
0.008923519119 
0.009144761507 
0.008232193234 
0.008362651712 
0.008177804612 
0.008758362664 
0.01035763069 
0.009353252731 
0.0074763572 
0.008797711723 
0.0077616358 
0.006997804562 
0.009532455668 
0.007965651187 
0.008088114467 
0.009530574855 
0.008516483393 
0.008015138576 
0.007930517533 
0.009805068667 
0.009538702745 
0.007931281766 
0.007012056559 
0.0077175988 
0.007892392015 
0.008085695513 
0.008832294824 
0.007905882583 
0.007901996615 
0.009921209174 
0.007685668831 
0.008570310524 
0.008184982881 
0.007640197755 
0.007989195537 
0.007916632149 
0.007442322511 
0.00822698856 
0.008155091465 
0.008888797197 
0.007854468567 
0.008243524823 
0.008239419809 
0.00851826915 
0.00758129932 
0.008338668922 
0.009458726192 
0.007650686191 
0.007914474628 
0.00722238349 
0.007759723331 
0.009658586734 
0.009760529042 
0.007143635878 
0.007067221568 
0.008129697875 
0.009555270754 
0.00701634543 
0.007749784156 
0.00873838094 
0.007821587171 
0.008045739346 
0.00945166307 
0.00763848115 
0.009190685626 
0.00880822546 
0.009339587539 
0.01017267697 
0.00959992863 
0.008470570684 
0.007728802279 
0.007985822118 
0.007899634282 
0.007702192149 
0.00901366022 
0.008389105304 
0.009611279245 
0.009720920198 
0.007643840664 
0.007894765485 
0.007813167135 
0.008101893266 
0.008387703417 
0.007492403967 
0.007613930384 
0.009258554871 
0.008381530655 
0.007527708019 
0.008121559561 
0.008015779551 
0.007059734912 
0.007852568529 
0.008332275265 
0.009628335958 
0.00807126713 
0.008005784885 
0.008005756344 
0.008355782384 
0.007826604898 
0.008004737273 
0.008298526358 
0.008137032584 
0.008632556947 
0.008636422984 
0.008003982196 
0.007816304233 
0.008473171804 
0.007907198923 
0.007742141529 
0.008434286459 
0.00862898258 
0.008929199302 
0.008621675674 
0.008229254309 
0.008850709327 
0.008389448333 
0.008555121168 
0.008346847997 
0.009204508102 
0.01016636763 
0.008749415145 
0.009896657308 
0.008479115889 
0.00861111813 
0.008516710693 
0.00864715315 
0.01179211195 
0.01280889619 
0.007691462576 
0.00840230679 
0.008044267973 
0.01080588642 
0.009568733734 
0.009443295074 
0.01010458975 
0.008739754628 
0.009127570942 
0.007761453625 
0.007692317154 
0.00978399358 
0.007213940756 
0.007455017569 
0.007084000355 
0.008026219521 
0.008477861881 
0.008162376952 
0.007192534144 
0.007148368563 
0.007695815766 
0.008441055662 
0.007451886063 
0.007956717649 
0.01099550816 
0.008266075512 
0.009982845296 
0.008260677521 
0.008063993791 
0.008512949902 
0.009496434861 
0.008170271373 
0.007846404109 
0.009783927506 
0.007895712184 
0.007814919585 
0.009553529865 
0.008701166396 
0.009379462201 
0.008743574743 
0.01037466301 
0.008921781357 
0.007492161898 
0.009841824906 
0.0082983635 
0.009687181851 
0.007632044449 
0.008915289847 
0.009783350879 
0.008657476806 
0.007085645349 
0.007173387595 
0.007072552137 
0.008061771749 
0.007901315799 
0.008288412875 
0.007752001408 
0.008264967482 
0.007770139239 
0.007801705975 
0.007904694342 
0.008413353296 
0.009183900574 
0.008151977287 
0.008144528257 
0.009191594375 
0.007903781148 
0.008189809335 
0.009472086247 
0.008058449435 
0.007873695534 
0.0094987017 
0.009514680534 
0.007771150623 
0.008364805061 
0.008890675478 
0.01058149774 
0.007593558264 
0.009144283252 
0.01037670617 
0.00979118517 
0.008790933792 
0.00811074519 
0.007689680838 
0.007851352466 
0.007246156754 
0.008776207233 
0.007960755635 
0.009676791845 
0.008112261633 
0.007878885989 
0.007910194037 
0.007897571726 
0.008065120104 
0.009610878426 
0.008350602249 
0.008822492349 
0.009993152319 
0.008863671234 
0.009288563866 
0.008816270291 
0.009316941236 
0.009847229286 
0.01070329083 
0.008015161615 
0.008592489539 
0.009894776978 
0.009277317089 
0.00927053084 
0.007122566427 
0.009029781406 
0.01054382347 
0.007120379247 
0.007061574256 
0.008321250925 
0.008056186881 
0.008175976092 
0.007850807468 
0.008134043542 
0.01029762849 
0.008026552073 
0.008492509719 
0.008041080404 
0.009605180891 
0.008958409046 
0.008347748949 
0.007497848136 
0.008185248754 
0.008112835488 
0.007991571666 
0.009824550211 
0.008480905201 
0.007657793215 
0.008389240083 
0.007741009129 
0.008137340947 
0.008394279279 
0.00828211044 
0.009412673227 
0.007912548896 
0.008455984277 
0.00783817385 
0.007823269989 
0.0070916285 
0.00812302247 
0.008605183425 
0.008448325803 
0.008192590231 
0.009042507887 
0.009274738192 
0.007045654048 
0.007860856093 
0.007621494203 
0.007606903703 
0.008228795588 
0.007026024425 
0.007764769375 
0.007856974817 
0.008739624901 
0.008522263017 
0.00868861248 
0.008383891173 
0.007787407851 
0.008185227619 
0.007772144177 
0.007356619908 
0.007581318158 
0.008510996739 
0.00884142115 
0.008199190122 
0.007762542263 
0.008250026899 
0.008256379015 
0.01020441684 
0.007348351083 
0.00844214671 
0.008171271468 
0.008112841303 
0.007836805425 
0.007949358289 
0.007104659765 
0.007756082323 
0.00884419145 
0.0071330693 
0.008667805775 
0.007892651034 
0.009730810027 
0.008635801189 
0.007773887727 
0.009533325561 
0.00851535453 
0.009856033415 
0.008000365451 
0.008277079832 
0.01065208931 
0.008473218467 
0.009968442921 
0.01060503919 
0.008493042617 
0.007915891635 
0.009207479728 
0.009450851676 
0.008079243947 
0.01029543974 
0.00770143354 
0.007936625434 
0.007513457561 
0.007361652834 
0.007924248937 
0.008704119314 
0.00792994555 
0.008067536281 
0.009381194634 
0.007854033905 
0.006762352581 
0.00831575997 
0.007868363177 
0.008594744668 
0.007059226555 
0.0103232563 
0.009011656295 
0.008257060379 
0.008538475074 
0.007208365952 
0.007974060353 
0.01034743106 
0.008241064049 
0.01000308793 
0.007338331636 
0.006893437358 
0.008056564439 
0.01114196003 
0.009223211845 
0.008333056188 
0.008075201338 
0.009772364259 
0.008789880425 
0.008296725999 
0.008291382204 
0.008692036602 
0.008227800609 
0.008176280004 
0.008567080465 
0.009735977895 
0.008417832006 
0.007637169177 
0.00780760114 
0.008089810771 
0.008893176336 
0.008469558072 
0.008236195342 
0.008074180918 
0.007720027409 
0.007575139301 
0.00798327619 
0.007514738509 
0.007943330997 
0.007997609461 
0.008257524276 
0.007821434235 
0.007895884166 
0.007609756963 
0.008304096365 
0.008697898539 
0.009750838803 
0.01034847826 
0.008709632721 
0.009967219652 
0.008205295422 
0.009128664204 
0.00835719489 
0.008195469445 
0.007236559927 
0.008648379564 
0.007530180554 
0.008055519621 
0.007084841964 
0.007055193034 
0.007964049682 
0.007903773477 
0.007832561332 
0.008678194657 
0.008355531036 
0.007727095739 
0.01020541707 
0.007141901561 
0.007706303647 
0.009960917901 
0.007133227114 
0.008172403076 
0.007972987923 
0.007851021642 
0.007778626132 
0.009772789945 
0.00844626562 
0.01096043041 
0.009042451013 
0.008153306176 
0.008058452211 
0.007987691186 
0.008302242443 
0.008091095927 
0.009470804429 
0.00826498543 
0.01124223456 
0.00787561563 
0.009970138362 
0.008210295038 
0.008491635438 
0.008902931454 
0.01003741012 
0.01040005871 
0.01017444153 
0.01057330764 
0.008539372032 
0.007998211168 
0.00827248444 
0.008375983423 
0.007453513179 
0.008261438949 
0.009971833141 
0.00789111524 
0.008025552532 
0.01215542056 
0.008531704315 
0.008009769601 
0.008326394392 
0.007623698919 
0.007571505631 
0.009914668614 
0.008529737269 
0.007672622256 