# vtk DataFile Version 3.0
MOAB 4.9.0
ASCII
DATASET UNSTRUCTURED_GRID
POINTS 258 double
0.75 6.123233996e-17 -0.5
0.7880602337 0.1913417162 -0.5
0.8964466094 0.3535533906 -0.5
1.058658284 0.4619397663 -0.5
1.25 0.5 -0.5
1.441341716 0.4619397663 -0.5
1.603553391 0.3535533906 -0.5
1.711939766 0.1913417162 -0.5
1.75 0 -0.5
1.711939766 -0.1913417162 -0.5
1.603553391 -0.3535533906 -0.5
1.441341716 -0.4619397663 -0.5
1.25 -0.5 -0.5
1.058658284 -0.4619397663 -0.5
0.8964466094 -0.3535533906 -0.5
0.7880602337 -0.1913417162 -0.5
0.75 6.123233996e-17 0.5
0.7880602337 -0.1913417162 0.5
0.8964466094 -0.3535533906 0.5
1.058658284 -0.4619397663 0.5
1.25 -0.5 0.5
1.441341716 -0.4619397663 0.5
1.603553391 -0.3535533906 0.5
1.711939766 -0.1913417162 0.5
1.75 -1.224646799e-16 0.5
1.711939766 0.1913417162 0.5
1.603553391 0.3535533906 0.5
1.441341716 0.4619397663 0.5
1.25 0.5 0.5
1.058658284 0.4619397663 0.5
0.8964466094 0.3535533906 0.5
0.7880602337 0.1913417162 0.5
0.9722082135 0.4157303493 0.002296580092
1.152450547 0.4903917864 0.00243671323
1.347540777 0.4903935121 0.00253689464
1.527781394 0.4157372936 0.002540114026
1.665732365 0.2777887698 0.002540521497
1.740391794 0.09754941354 0.002540579871
1.740393466 -0.09754100763 0.002540643512
1.665737003 -0.2777818287 0.002541001128
1.527787733 -0.4157330576 0.002543068742
1.347545968 -0.4903924797 0.002554350711
1.152448599 -0.490391399 0.002612630707
0.9722201298 -0.4157383116 0.002659192129
0.8342709044 -0.2777936628 0.002689742991
0.8342762402 0.2778016478 0.002359346965
0.7596088407 0.09755260587 0.002563573088
0.7596142352 -0.09757971952 0.002712426452
0.8964471582 -0.3535539394 0.169090351
1.058663292 -0.4619418409 0.1690820167
1.250009541 -0.4999999999 0.1688957248
1.441350691 -0.4619360485 0.1688903664
1.60356038 -0.3535464012 0.1688897185
1.711943572 -0.1913325285 0.1688896432
1.75 9.972457277e-06 0.1688896315
1.71193593 0.1913509782 0.1688896009
1.60354616 0.3535606212 0.1688893733
1.441331514 0.4619439922 0.1688876413
1.249985613 0.4999999998 0.1688744265
1.058632336 0.4619290173 0.1687731682
0.8964595669 0.3535663476 0.1687526974
0.7880633942 0.1913493459 0.16876169
0.7880830198 -0.1913967174 0.1690585053
0.7500000017 4.104430722e-05 0.1687606598
0.8964359774 0.3535427582 -0.1641581878
1.058680855 0.461949115 -0.1639166172
1.250000041 0.5 -0.1638204064
1.441341702 0.4619397721 -0.1638202976
1.603553374 0.353553407 -0.163820282
1.71193976 0.1913417306 -0.163820278
1.75 -1.936919254e-08 -0.1638202673
1.71193971 -0.1913418517 -0.1638202033
1.603552973 -0.3535538087 -0.1638198145
1.44133981 -0.4619405557 -0.1638175475
1.249993621 -0.5 -0.1638055821
1.058644695 -0.4619341372 -0.1637565681
0.8964527483 -0.3535595294 -0.1637249798
0.7880672981 -0.1913587702 -0.1637004475
0.7880622009 0.1913464652 -0.1638421455
0.7500000006 -2.470078979e-05 -0.1635904718
0.8342378247 -0.2777441513 0.3349063075
0.9722624507 -0.4157665856 0.3345654839
1.152467649 -0.490395188 0.3343857138
1.347557971 -0.490390092 0.3343857138
1.527795976 -0.4157275499 0.3343857138
1.665742062 -0.277774257 0.3343857138
1.740395188 -0.09753235154 0.3343857137
1.740390092 0.09755797022 0.3343857131
1.66572755 0.2777959763 0.3343857084
1.527774248 0.415742068 0.3343856741
1.347532276 0.4903952031 0.334385439
1.152441606 0.4903900078 0.3343839095
0.9722022978 0.4157263964 0.3343745904
0.8342532871 0.2777672959 0.3343234579
0.7596005061 0.09751069872 0.3340994152
0.7595989028 -0.09750263527 0.3337582249
0.8342651938 0.2777851165 -0.3310517811
0.9722148835 0.4157348062 -0.3310517811
1.152454839 0.4903926402 -0.3310517811
1.347545161 0.4903926402 -0.3310517811
1.527785117 0.4157348062 -0.3310517811
1.665734806 0.2777851165 -0.3310517811
1.74039264 0.09754516101 -0.3310517811
1.74039264 -0.09754516101 -0.3310517811
1.665734806 -0.2777851165 -0.3310517811
1.527785117 -0.4157348062 -0.3310517811
1.347545161 -0.4903926402 -0.3310517811
1.152454839 -0.4903926402 -0.3310517811
0.9722148835 -0.4157348062 -0.3310517811
0.8342651938 -0.2777851165 -0.3310517811
0.7596073598 -0.09754516101 -0.3310517811
0.7596073598 0.09754516101 -0.3310517811
0.9536465472 0.04618786222 -0.5
1.00287455 0.2416448663 -0.5
1.190365112 0.2954670438 -0.5
1.383106432 0.3225470908 -0.5
1.504232255 0.1690736851 -0.5
1.600783524 0.0003851645617 -0.5
1.50579138 -0.1709888883 -0.5
1.385834781 -0.324582301 -0.5
1.194869128 -0.3031155981 -0.5
1.038880947 -0.2748242166 -0.5
0.9240148157 -0.1469191159 -0.5
1.139128631 0.1028748785 -0.5
1.31529403 0.1472092839 -0.5
1.416993544 -0.002601132257 -0.5
1.313355166 -0.1522756309 -0.5
1.117640405 -0.1046363503 -0.5
1.260482355 -0.00188579022 -0.5
0.969544267 -0.103031765 0.5
1.11902354 -0.2965865035 0.5
1.32262545 -0.2845687188 0.5
1.506250096 -0.2467481756 0.5
1.558201407 -0.06487002854 0.5
1.574801536 0.1288009835 0.5
1.419750895 0.247321626 0.5
1.248790887 0.3453820353 0.5
1.07741235 0.2512011627 0.5
0.9282526776 0.1271648905 0.5
1.221177455 -0.0781489964 0.5
1.402438241 -0.1260788355 0.5
1.403397072 0.0425552318 0.5
1.243096877 0.1463726497 0.5
1.087896725 0.06871158831 0.5
1.110726237 -0.1783854812 -0.1260688305
1.180900335 -0.3617390096 -0.1297549456
1.302721381 -0.1607831717 -0.1299756616
1.184965253 -0.3269213736 0.002600036561
1.114776492 -0.3375417292 -0.2453646511
1.254750609 -0.2222499549 -0.254684031
1.084648371 -0.1436516047 -0.2568347454
0.998393774 -0.2515693009 -0.2562094927
0.9526141286 -0.2004665136 -0.1247095764
1.12373817 -0.07533164322 -0.002670465037
0.979182303 -0.2527414262 0.001116487081
1.219668746 -0.04329782352 -0.1416324526
1.031049967 -0.03462633491 -0.2507101893
1.463059783 -0.09295804054 -0.3751334548
1.519749522 -0.2560150921 -0.2535970211
1.393609524 -0.191325292 -0.2536425889
1.450686216 -0.2911351323 -0.3778195977
1.55961442 0.09058718383 -0.3819922507
1.356383681 0.06429852545 -0.381075114
1.59715724 -0.08332540095 -0.3682122529
1.333341956 -0.2570513487 -0.3786284328
1.323739409 -0.09982158989 -0.3810746074
1.107296467 0.05778951943 0.04625948519
1.057627559 0.2895126641 0.03894719109
1.295029283 0.1111242175 0.004043503664
1.169355392 0.1296989918 -0.1344429255
1.258823991 -0.02876117453 -0.2584091425
1.045685053 0.1115376875 -0.2573685348
1.318246722 -0.3663766682 0.0810123235
1.324617505 -0.3617429435 -0.1297946572
1.435194612 -0.2771610022 0.002501917304
1.448141694 0.2912281156 -0.376187861
1.28753078 -0.2363646626 0.1632636636
1.05249393 -0.3068859875 0.1630217731
1.370385051 -0.3382346928 0.2756128609
1.555957556 -0.2028077841 -0.1285487562
1.470716238 -0.04473161697 -0.1297172755
1.33716619 -0.08671892434 0.002611289965
0.9178019166 0.1779746115 -0.3044440746
1.409392238 0.006994291674 -0.2486784011
1.405454278 0.1709344238 -0.1300458312
1.315573335 0.1418387443 -0.2606957257
1.208310246 0.2358512431 -0.2573568225
1.048128247 0.3057467639 -0.1299884915
1.189681768 0.3544258475 -0.1251629442
0.9465200901 0.2041444033 -0.1299400032
1.559008718 0.2041358054 -0.1298048943
0.9063692093 0.06386609375 -0.1214637384
1.11289835 0.07646874338 0.2368118316
1.230427623 -0.06584890187 0.2450127602
1.1250844 0.2058719844 0.1277487427
0.9757316709 0.2057674229 0.1408175975
1.234740853 0.1076816991 -0.3773338497
0.9423919916 0.1302056462 0.002500652801
1.307900429 0.3189432919 0.014257906
1.332107902 0.3637795448 -0.1379605532
1.545316339 -0.1836313903 0.2748921216
1.141560793 0.02025646344 -0.377948761
1.198088408 -0.1004378721 -0.3843638003
1.457392097 -0.3067452013 -0.1298030615
1.579908967 -0.1344098002 -0.2470857203
1.393692374 -0.3407376111 -0.2523858845
0.9925704598 -0.07078426331 -0.3809494972
0.9109605551 -0.1435008198 -0.2568955719
0.8823785186 -0.06175342947 0.2755190432
1.107759356 -0.2652493715 -0.3863215744
1.433598161 0.1606344134 -0.3176989853
1.323204875 0.2314005941 -0.3767154813
1.393694043 0.339744091 -0.252387464
1.513170719 0.2599122524 -0.252387464
1.593002558 0.1404356062 -0.252387464
1.485204101 0.2051517814 0.007528511342
0.8806242943 -0.0003862817539 -0.2876097858
1.089953184 0.3385726213 -0.2503696978
1.097685695 0.1805505008 -0.3752900362
1.279925466 0.1956330538 0.1856170446
1.024204493 0.2782453895 0.2797117531
1.094741464 -0.02633588016 0.359169066
1.02127564 -0.1357502192 0.172901988
1.150694132 0.1877027154 0.3631866574
1.25400877 0.06956776232 0.3707508147
0.8926460147 0.04558301717 0.139582634
0.9150899649 -0.08285105228 0.01866657659
1.45169723 -0.0904860273 0.183638975
0.8871197701 0.1422901452 0.2529987395
1.251380801 0.3743831515 -0.3230782151
1.448141813 0.2943475842 0.1189035922
1.408147931 0.131603092 0.2450286895
1.255379677 -0.3677121699 -0.2590662837
1.612716913 0.003341748146 -0.2511408031
1.415024281 -0.2347097844 0.3929045498
1.576917887 0.06502569467 0.002569311066
1.6140064 0.07136286795 -0.1298047751
1.455141664 0.299726963 -0.1241403967
1.614007592 -0.07234994322 -0.1298047751
1.544225335 -0.09754872322 0.002575000981
0.8947383761 -0.07792990655 -0.1320438683
1.054858088 -0.311914295 -0.1265496314
1.519383192 0.2432414293 0.3863367438
1.487622976 0.007540776394 0.3756693006
1.615386844 0.1126664355 0.2205646038
1.44007194 0.3188075125 0.275698334
1.349395394 0.1794255376 0.3748820722
1.169570088 0.3542713225 0.1253354698
0.9663605094 0.09014400095 0.318944186
1.151343107 -0.2010613531 0.3283568025
1.35607779 -0.08318732679 0.3707523346
0.9927636385 -0.2043811679 0.3867866397
1.561081648 0.1972554475 0.1491530538
1.558960676 -0.2298330963 0.1220229268
1.615685821 -0.09288331121 0.1220226735
1.278325319 0.3606494665 0.3337435126
1.314012647 0.3798172474 0.1701941043
1.180632591 -0.3664267361 0.3194567859
CELLS 1041 5205
4 144 145 146 147
4 144 145 148 149
4 144 150 151 152
4 144 150 148 151
4 144 153 152 154
4 144 149 148 150
4 144 155 150 156
4 144 146 149 155
4 157 158 159 160
4 125 157 161 162
4 117 161 157 163
4 126 164 157 165
4 117 157 118 163
4 125 126 157 165
4 166 167 168 169
4 156 169 170 171
4 147 172 173 174
4 41 173 172 174
4 51 41 172 174
4 6 116 101 175
4 50 176 172 177
4 147 172 176 177
4 50 41 147 172
4 50 41 42 147
[...]
CELL_DATA 1041
SCALARS TALLY_TAG double 1
LOOKUP_TABLE default
0.5914953095 
0.6319204339 
0.6217524708 
0.5819577481 
0.6263906571 
0.6005381565 
0.6081872935 
0.5684673517 
0.5234351558 
0.5231121851 
0.5687369134 
0.5738394865 
0.5034191768 
0.5513649853 
0.5496192257 
0.5681020147 
0.5692150978 
0.5420469612 
0.519694748 
0.5648759778 
0.5504418676 
0.5509058236 
0.5157244422 
0.5709412442 
0.5215867203 
0.5743357881 
0.4985369373 
0.5768837582 
0.5512654928 
0.6472897415 
0.5034546129 
0.6030981602 
0.5417215354 
0.5313381949 
0.5627302982 
0.6100307357 
0.5308283106 
0.5653392454 
0.5567678693 
0.6019517141 
0.5274581094 
0.5514106834 
0.5210065314 
0.5518660674 
0.5860852437 
0.5340632559 
0.5746572867 
0.5969633909 
0.5747490739 
0.5359543744 
0.5953597753 
0.5918135579 
0.5424028881 
0.54519387 
0.5165761322 
0.5370387064 
0.5706329439 
0.584458365 
0.5611988746 
0.5311090812 
0.5638183353 
0.4654799286 
0.5584122587 
0.545506728 
0.5474090914 
0.563769273 
0.5931496406 
0.6097709108 
0.6167742635 
0.5926749513 
0.5718008939 
0.568761287 
0.5834172123 
0.5836688594 
0.5418082337 
0.5996765933 
0.5264196806 
0.5456735634 
0.5351307261 
0.5386564069 
0.537763271 
0.5121423662 
0.5804949014 
0.5491100754 
0.511971178 
0.5384915513 
0.5157355279 
0.5483271067 
0.5716997469 
0.6025691244 
0.5958413801 
0.4994898881 
0.6258894973 
0.5977719766 
0.5805775263 
0.5629639773 
0.5696365676 
0.5406472564 
0.6091786081 
0.54202831 
0.5656018971 
0.5735405685 
0.5577966419 
0.5809357717 
0.5700814713 
0.6029473288 
0.7062361419 
0.6200797866 
0.5544010351 
0.5823517857 
0.5701743996 
0.5592324763 
0.5613605083 
0.5831644928 
0.6799255847 
0.5940602282 
0.5322055647 
0.5517131508 
0.5443763428 
0.5782738438 
0.5410076575 
0.5931132892 
0.588781989 
0.5039686041 
0.5018050397 
0.489682669 
0.5346771625 
0.5572962056 
0.5685783858 
0.5243000159 
0.4747288828 
0.5014711371 
0.4855493795 
0.5829392818 
0.5295901542 
0.481067781 
0.551988559 
0.5660569785 
0.533618416 
0.5467487897 
0.5726019859 
0.539219754 
0.5667898065 
0.5750694647 
0.5728143045 
0.5480141005 
0.5715520413 
0.5585646892 
0.5950797209 
0.5770635311 
0.6142937861 
0.6399065233 
0.5341248133 
0.6095170962 
0.5335979006 
0.5873246531 
0.5792912019 
0.5436679658 
0.5717220242 
0.5500871412 
0.5342932534 
0.4907949268 
0.5644729526 
0.5642062532 
0.5881687985 
0.5858808712 
0.6203945817 
0.53233128 
0.5928752418 
0.6019517772 
0.6487327239 
0.6412251472 
0.5726806277 
0.5789104237 
0.5794028741 
0.5477021252 
0.5841130968 
0.5780489615 
0.598710331 
0.5433516337 
0.5465940692 
0.5702988444 
0.6022799289 
0.5091333374 
0.5151674559 
0.5202034917 
0.5303115722 
0.5362337035 
0.5328825644 
0.5204215438 
0.5390499819 
0.5622372993 
0.4960774534 
0.554851596 
0.5149235624 
0.6064101608 
0.5489423276 
0.6848376757 
0.5722754881 
0.5507927801 
0.5602388976 
0.6655780342 
0.5300495785 
0.597977479 
0.55424886 
0.5167607448 
0.5236402964 
0.6846448579 
0.5017291589 
0.5756820934 
0.4895335811 
0.5523168377 
0.6044438149 
0.6352906597 
0.5766849585 
0.5764802682 
0.6025612697 
0.5719106614 
0.5695174883 
0.5240449829 
0.578832452 
0.5453552538 
0.5738794727 
0.5465184061 
0.5818502134 
0.5672715092 
0.5983991263 
0.5342927495 
0.6014040761 
0.5713072631 
0.64376472 
0.6027496234 
0.6214083809 
0.6134817093 
0.5909671709 
0.605943696 
0.5661847128 
0.5427567119 
0.6032741711 
0.5766669162 
0.581205968 
0.6431727599 
0.590621605 
0.5917322126 
0.5638293764 
0.5891225144 
0.5980291778 
0.6269424867 
0.5818712341 
0.5710031639 
0.5990341081 
0.6216980382 
0.6199731545 
0.586627465 
0.6056063678 
0.6528839605 
0.5505724851 
0.5218643176 
0.6840575843 
0.5710453083 
0.5933138317 
0.62181496 
0.603387497 
0.5493956928 
0.5559756946 
0.6068467534 
0.5749550516 
0.6368764831 
0.5253838341 
0.5109393312 
0.6103261756 
0.5654287701 
0.5773507175 
0.5787780697 
0.58287575 
0.5693835407 
0.6013828342 
0.5633597113 
0.5742340562 
0.6079115102 
0.6409571206 
0.6067360983 
0.5416647656 
0.5031173247 
0.5309772765 
0.4984741173 
0.5240036844 
0.624911276 
0.5574841934 
0.6261868447 
0.6114452815 
0.6678060406 
0.6596675988 
0.5526967922 
0.6042909398 
0.5441006687 
0.5943733121 
0.6051819138 
0.6472993497 
0.5487683068 
0.5520765736 
0.5404986555 
0.6035849309 
0.5918070327 
0.6301582776 
0.6004276163 
0.592975315 
0.5698044362 
0.5808946542 
0.545815475 
0.5917464148 
0.6086154348 
0.6386432814 
0.5447618052 
0.4977790545 
0.5162468181 
0.5610985512 
0.5185020836 
0.5454835873 
0.5366659738 
0.4993382365 
0.5571220931 
0.5265108275 
0.5652756622 
0.5784022101 
0.5494396954 
0.5540154079 
0.5688268875 
0.5359248292 
0.5201388997 
0.5911895014 
0.5414813937 
0.5361848024 
0.5013393527 
0.5720330721 
0.5324257583 
0.5152887605 
0.5719184754 
0.5239309592 
0.5705598991 
0.5045941871 
0.5389534433 
0.5536992416 
0.4844380895 
0.5683233992 
0.5636974159 
0.5242012682 
0.5559021488 
0.5574276349 
0.5741498882 
0.5768281049 
0.631308369 
0.6052256599 
0.5942870007 
0.5889101516 
0.6215933254 
0.6046318864 
0.5320436075 
0.5776958566 
0.5252089555 
0.5816392862 
0.5741860736 
0.5409282092 
0.507397624 
0.5058430706 
0.5929024114 
0.5337836704 
0.519441388 
0.5436339649 
0.5227657946 
0.5873511396 
0.482710042 
0.5529768552 
0.5452136338 
0.5241090595 
0.5412336696 
0.6253550334 
0.6251163326 
0.593917176 
0.6383109129 
0.6011022968 
0.5674716037 
0.6323963205 
0.5436856729 
0.5528594582 
0.5746006438 
0.539187371 
0.5691665789 
0.5811196196 
0.5513110328 
0.5453761487 
0.4970583118 
0.5624604919 
0.5258030761 
0.6047801125 
0.5046053582 
0.5040903892 
0.4883359259 
0.4847180073 
0.6056200676 
0.4575550884 
0.5975020989 
0.5894836837 
0.5512445298 
0.5860281854 
0.550204449 
0.5473446015 
0.6418109816 
0.602702822 
0.6258306139 
0.6029697094 
0.5660409455 
0.540920253 
0.569022509 
0.5796226592 
0.5857666013 
0.590848321 
0.567972525 
0.6124508072 
0.5811233703 
0.5649345329 
0.5290645235 
0.5182151148 
0.500219789 
0.6075133374 
0.5781922797 
0.5766106039 
0.6171156182 
0.6642570448 
0.5386458741 
0.5476586894 
0.5274072877 
0.5447610898 
0.5410107875 
0.4879912628 
0.5778207187 
0.5989311854 
0.5947041472 
0.6328454424 
0.5820917196 
0.5401854727 
0.6242911457 
0.5947596999 
0.5888730095 
0.5855981104 
0.577766394 
0.5811637581 
0.5348636088 
0.613001753 
0.6601659229 
0.6225014667 
0.6213265652 
0.6132808575 
0.5796970485 
0.6091760552 
0.5746969996 
0.5825342938 
0.5095985002 
0.5457868032 
0.6242917722 
0.5205320375 
0.6415731252 
0.5298104548 
0.6130872759 
0.5655603226 
0.5065163396 
0.5218748122 
0.5012727638 
0.5582407673 
0.5359293749 
0.585789968 
0.5329443344 
0.5650815229 
0.5340452972 
0.5337695611 
0.5296044487 
0.4904721369 
0.6326205341 
0.5526699641 
0.6094329442 
0.5959873822 
0.5965790075 
0.4634768073 
0.5271860503 
0.5528207532 
0.4814529599 
0.4986442623 
0.5268990179 
0.5493492075 
0.5298593592 
0.578177972 
0.597438103 
0.5439440204 
0.5271524362 
0.5300999074 
0.5340240805 
0.5246197253 
0.4930826383 
0.4847920054 
0.5509744005 
0.5858961054 
0.5481123663 
0.5708231215 
0.6520293818 
0.6116213632 
0.616022574 
0.6298173214 
0.6072824631 
0.6048197067 
0.5460339665 
0.5756924457 
0.5565524564 
0.5985884775 
0.5865042379 
0.5536927009 
0.6051202596 
0.6237011558 
0.6095546664 
0.6086743819 
0.6017747957 
0.6739902808 
0.4686072294 
0.534265739 
0.4968076625 
0.5709277741 
0.4621802127 
0.4839529075 
0.476834686 
0.4925602234 
0.4761396534 
0.5688021345 
0.5104041251 
0.5002613832 
0.4922437476 
0.6069724212 
0.5306715345 
0.5770036543 
0.5830185419 
0.654802284 
0.5861909753 
0.5844257369 
0.5569276576 
0.5941570421 
0.6359572562 
0.5081868976 
0.5383646552 
0.5595767601 
0.5627988138 
0.523898036 
0.5155202624 
0.5140790009 
0.5388297268 
0.5708029297 
0.5423049743 
0.507596351 
0.549549069 
0.6461221971 
0.4846061786 
0.5026412118 
0.5481074674 
0.5516260378 
0.5339594698 
0.586335788 
0.5774021178 
0.5817157377 
0.5920164916 
0.5738591386 
0.5692098022 
0.6239637494 
0.5592046849 
0.5163434095 
0.5248727835 
0.54791402 
0.5133644647 
0.5723411874 
0.5940403498 
0.6643951065 
0.5443958223 
0.5963997514 
0.6057547913 
0.6208355811 
0.6388247332 
0.6349525904 
0.5769657477 
0.5437367238 
0.5615950299 
0.540944965 
0.5345048343 
0.5356532736 
0.5662223639 
0.5164270504 
0.5441671567 
0.5620525426 
0.5428378236 
0.5682930701 
0.558658598 
0.5726764602 
0.5953960276 
0.5099453227 
0.5661198878 
0.6081449214 
0.5939336898 
0.5846990495 
0.5527735414 
0.5470739152 
0.5476237466 
0.5471080842 
0.51594291 
0.5442567919 
0.5321681266 
0.5162044104 
0.5144834683 
0.4888043798 
0.5122567788 
0.481500367 
0.5397052319 
0.6191289173 
0.4887381561 
0.4977455674 
0.609577689 
0.5869371385 
0.4963028868 
0.5505880293 
0.494904542 
0.5026958048 
0.5547577932 
0.5114620689 
0.5743530864 
0.5177751472 
0.5165102458 
0.5611442724 
0.5655607211 
0.6135053505 
0.6132082051 
0.6015504689 
0.5567089152 
0.5108249105 
0.5282125176 
0.5539688787 
0.6469870916 
0.6431890412 
0.5663817551 
0.5840643608 
0.6227014966 
0.6220240969 
0.6174924183 
0.5933254894 
0.6357932013 
0.589722939 
0.5941402871 
0.61503971 
0.6189768924 
0.5565323667 
0.5684263196 
0.5249910315 
0.6121836849 
0.4995492083 
0.479439497 
0.5448835593 
0.5604232007 
0.5492882711 
0.5161651659 
0.5099099571 
0.5255444129 
0.5538387242 
0.6318696444 
0.5413550659 
0.5594871494 
0.5508192867 
0.5750570108 
0.5761159837 
0.6144443716 
0.5172201694 
0.6047520588 
0.5261928659 
0.5346278007 
0.5581360893 
0.5052983686 
0.4998646301 
0.6007335884 
0.6267251843 
0.5359226905 
0.5622909349 
0.5591864461 
0.5739852316 
0.596071778 
0.6120558245 
0.5566030856 
0.5674579513 
0.5661599938 
0.5789848959 
0.5831429648 
0.5626335874 
0.5663964745 
0.4669588897 
0.5271678435 
0.5259941443 
0.5985022049 
0.6340386943 
0.5892112737 
0.5545226992 
0.6139251387 
0.6172682608 
0.5979855719 
0.6191825953 
0.5872385417 
0.5820063279 
0.5396113729 
0.5144849636 
0.6426204667 
0.6464486749 
0.5121341836 
0.5460233032 
0.5437912493 
0.554851372 
0.51163692 
0.5161453178 
0.4877420306 
0.5255578551 
0.5782507273 
0.6229972062 
0.5682583282 
0.5742164012 
0.5096706712 
0.5235495873 
0.5280044295 
0.5214229528 
0.6287302428 
0.6046310221 
0.5916439131 
0.5405830747 
0.5392093745 
0.6011572493 
0.5260727595 
0.5440782105 
0.5588614861 
0.6059666754 
0.4965933094 
0.6117916759 
0.6101909738 
0.5696022372 
0.606885106 
0.6727759082 
0.5752592929 
0.5077424816 
0.6176049044 
0.6487911395 
0.6082953431 
0.6415434725 
0.5352007289 
0.6020631595 
0.5039933605 
0.5749978505 
0.5627098939 
0.5236900456 
0.5082999999 
0.6090332862 
0.6645628731 
0.5780912896 
0.6135344651 
0.6369135755 
0.5599879916 
0.5280443877 
0.5285644085 
0.6114584444 
0.5641592079 
0.5229929379 
0.6105703413 
0.5588195895 
0.5634777474 
0.536676653 
0.5135799695 
0.647080839 
0.5778411779 
0.6091277975 
0.5844116779 
0.5808559371 
0.604762918 
0.5930380273 
0.5123016005 
0.5781404508 
0.5138115826 
0.5062477997 
0.590064568 
0.6421649594 
0.6133991934 
0.6233360825 
0.62852362 
0.6561395484 
0.5890528304 
0.6088160449 
0.5893736792 
0.5374420171 
0.5976729631 
0.5288080907 
0.5593055812 
0.5436623855 
0.5934609788 
0.4950854382 
0.5642466505 
0.6495821321 
0.575430824 
0.5407871351 
0.5854228249 
0.4959089181 
0.526133423 
0.6103886422 
0.5551129551 
0.5592993405 
0.4931434697 
0.6669457039 
0.5452524345 
0.5884710274 
0.5441435546 
0.5803358148 
0.5393145656 
0.5557067349 
0.6178056774 
0.6812140194 
0.5216132441 
0.6537161138 
0.6347130231 
0.5434465771 
0.6419576412 
0.6622715743 
0.5599401427 
0.5806323541 
0.5108048073 
0.6159962665 
0.6787727187 
0.6162883083 
0.6303311774 
0.6138610888 
0.5798008012 
0.6082202179 
0.6031467878 
0.5213859682 
0.6349698254 
0.5240954681 
0.5918266475 
0.5262162435 
0.5191708496 
0.4983114649 
0.5711095354 
0.6036874542 
0.5921935199 
0.5252149317 
0.6136237565 
0.5366933672 
0.536859442 
0.6817106334 
0.5857045628 
0.6011913814 
0.6124217164 
0.5755610622 
0.6250993179 
0.5617083975 
0.4956045272 
0.5257706652 
0.611347768 
0.4932873695 
0.5711555415 
0.6020644746 
0.5009341915 
0.625522204 
0.5401012465 
0.6157612447 
0.5229220339 
0.5077635274 
0.5054300944 
0.6454461316 
0.5492151123 
0.4923553423 
0.5472717145 
0.5553358795 
0.5691315347 
0.4666535717 
0.5815724059 
0.7325960965 
0.5706010637 
0.6123191546 
0.5847947002 
0.562082912 
0.5033007598 
0.5679204263 
0.6079608065 
0.5179597022 
0.5763356446 
0.5493404357 
0.5244893706 
0.529983554 
0.5625713121 
0.5055530091 
0.6586685508 
0.613632176 
0.5823489498 
0.6199219178 
0.6515965086 
0.6712320954 
0.6185190871 
0.6263184262 
0.5522662917 
0.5918863756 
0.5677452663 
0.5120113526 
0.6095863775 
0.5560243964 
0.6299593195 
0.5617276386 
0.5462535467 
0.6227510325 
0.5284022948 
0.552634585 
0.6171529344 
0.6031901772 
0.4823937964 
0.6660407696 
0.5950936172 
0.5922808286 
0.594274124 
0.6288316446 
0.4993329219 
0.5112176527 
0.5485789309 
0.545791887 
0.6965186239 
0.5249565579 
0.5293474611 
0.5197207019 
0.5439408229 
0.6433622123 
0.668075935 
0.5624071165 
0.6426315251 
0.5364156531 
0.5384112305 
0.5411639161 
0.5784818213 
0.6342787054 
0.5564181719 
0.5989435914 
0.5216086744 
0.5161580273 
0.6043205172 
0.5702657873 
0.4978269944 
0.5290302263 
0.546838411 
0.5272429214 
0.6157949647 
0.4995111149 
0.6739608032 
0.667234193 
0.5621439237 
0.5499392908 
0.5578408669 
0.5671808906 
0.6474677313 
0.6699426255 
0.5377449569 
0.6252939138 
0.5478871353 
0.5848740514 
0.6251931405 
0.5241578686 
0.5617965496 
0.6201407121 
0.6531034471 
0.5741784141 
0.5953428434 
0.5549843069 
0.5800189945 
0.5514740952 
0.522645696 
0.541664767 
0.5710623592 
0.5607099924 
0.5829780653 
0.4996066897 
0.5599648683 
0.6083263501 
0.5406912124 
0.6958772989 
0.5947952942 
0.5727759819 
0.651085096 
0.5674201818 
0.6492207267 
0.6291753535 
0.4869109297 
0.5379134618 
0.6580159204 
0.4816856484 
0.7198607331 
0.5984570855 
0.6641773088 
0.6048394012 
0.5362265763 
0.5613886632 
0.527360972 
0.5509603609 
0.6561035412 
0.6737234936 
0.6587981321 
0.5962272737 
0.633883579 
0.5788032445 
0.5965624704 
0.6585830257 
0.5539732505 
0.5692786417 
0.5796323706 
0.5766934768 
0.5643833327 
0.5434170925 
0.6032468676 
0.6551177782 
0.5563583773 
0.5258814168 
0.6004850265 
0.5798249651 
0.6644745777 
0.5852681297 
0.5565097427 
0.5691344948 
0.620100369 
0.5636327974 
0.5759695088 
0.6415806448 
0.698647426 
0.6038087306 
0.5783831776 
0.509447513 
0.6594323162 
0.6698709407 
0.551750342 
0.5058414501 
0.5801598215 
0.6033297222 
0.5045660069 
0.5090785103 
SCALARS ERROR_TAG double 1
LOOKUP_TABLE default
0.03924247809 
0.04019378829 
0.05287325009 
0.04743965975 
0.04292155591 
0.04210256215 
0.04737983438 
0.04573856228 
0.04727311166 
0.04416831111 
0.04757097369 
0.04942275627 
0.04976210098 
0.05151979761 
0.03514055115 
0.04187620763 
0.04553143549 
0.04411491304 
0.04354948587 
0.03768146927 
0.03958953934 
0.04313521721 
0.04365954989 
0.03941711133 
0.04286225285 
0.04518472884 
0.04476546872 
0.04566793788 
0.05174025639 
0.0392016494 
0.03770207522 
0.04296876659 
0.04977994381 
0.04735689278 
0.03596091473 
0.03825714811 
0.04206984963 
0.04250134797 
0.04246672431 
0.04836075445 
0.04240662358 
0.03175410147 
0.03879282139 
0.03593217384 
0.0423443986 
0.04173866835 
0.04085077912 
0.04198199581 
0.03605355162 
0.04230967572 
0.04348391514 
0.03639174673 
0.03776541466 
0.03572607128 
0.03766939892 
0.04011720688 
0.05127691627 
0.04390927513 
0.04757315484 
0.04643456029 
0.04489421135 
0.04757303699 
0.05302790956 
0.04580509844 
0.04382125536 
0.04333109694 
0.04775637131 
0.04844163971 
0.04988947927 
0.04174576017 
0.0418958689 
0.04625450204 
0.04713151026 
0.03729367744 
0.03933930674 
0.05325427803 
0.04410231257 
0.03976768248 
0.04641636058 
0.04683937401 
0.04529338054 
0.04750910962 
0.03949764331 
0.04734396917 
0.04945464641 
0.04323235543 
0.04918884134 
0.04835487922 
0.04560094124 
0.04302829488 
0.04198855234 
0.04640532498 
0.04529362983 
0.04685273503 
0.04372263652 
0.0377078019 
0.04120831336 
0.0350087616 
0.04185889963 
0.03986247684 
0.0416090848 
0.04182743074 
0.04398818982 
0.04268520841 
0.04355029865 
0.03485674414 
0.0420273611 
0.04708056801 
0.04146352633 
0.05032762177 
0.05155077835 
0.04167802349 
0.03277985963 
0.03850873759 
0.04083855499 
0.03932809292 
0.03754198299 
0.03850860118 
0.03816185009 
0.0479535641 
0.035146496 
0.04664173747 
0.05355446506 
0.04316028222 
0.04060612579 
0.04831466921 
0.04842403272 
0.04447061623 
0.04882348741 
0.04876166182 
0.04957996176 
0.04526762239 
0.05016295484 
0.04987882274 
0.04680273357 
0.04991389342 
0.04570628331 
0.04242141264 
0.03488418828 
0.04179442271 
0.04885252533 
0.03400895494 
0.03175816714 
0.03845162806 
0.03736715745 
0.03488720855 
0.04386318632 
0.03690370855 
0.03772060512 
0.03580611606 
0.04609639296 
0.04007606644 
0.04464727267 
0.04111409439 
0.05155920339 
0.04963379724 
0.04712630437 
0.04410265188 
0.0497800578 
0.03004593319 
0.03723892004 
0.03771875794 
0.04187977431 
0.04441219396 
0.04523989923 
0.04286801427 
0.04067062479 
0.04408053155 
0.03920539954 
0.04011652194 
0.04560316048 
0.03999418272 
0.04089708559 
0.03730502836 
0.03659935466 
0.03880045191 
0.03363725863 
0.03974309527 
0.03697377436 
0.04257812037 
0.04792653213 
0.03628534367 
0.03530735501 
0.04374594015 
0.03654703969 
0.0420967977 
0.04387336316 
0.04109496946 
0.04010974546 
0.0413044997 
0.04411357557 
0.0376802521 
0.0494919956 
0.0356469163 
0.05487050917 
0.03848554084 
0.03920680426 
0.04843987463 
0.04197200328 
0.0445599558 
0.04539062927 
0.0369058452 
0.04157577008 
0.04673804854 
0.05126075528 
0.04472345801 
0.04006345042 
0.04451085961 
0.03456070684 
0.04247135751 
0.03741634956 
0.0394517479 
0.04197792753 
0.04440703509 
0.03442806175 
0.03655567315 
0.03424958941 
0.0358134223 
0.04376261057 
0.03949362463 
0.03822207124 
0.03742038499 
0.04519774823 
0.0467645121 
0.04253699349 
0.04029462137 
0.04401933481 
0.03999569841 
0.0388822285 
0.03851637081 
0.03478080141 
0.03573467867 
0.03866757274 
0.03659982923 
0.03667940641 
0.0339262086 
0.03595194782 
0.04130804081 
0.03603109263 
0.03578852449 
0.04764426521 
0.03882678169 
0.04112591676 
0.04213399378 
0.03974964083 
0.03401796842 
0.03896159117 
0.03804474887 
0.03694838601 
0.03862209585 
0.04716025147 
0.04740520688 
0.04620459129 
0.03559883377 
0.04157069019 
0.03822891073 
0.04304864528 
0.04218508824 
0.04426852184 
0.03864833961 
0.04054931555 
0.03105264167 
0.03810275544 
0.05051566633 
0.04125966386 
0.03585917436 
0.04497146925 
0.04329093979 
0.04883628857 
0.05303653171 
0.03474513977 
0.04616964333 
0.03775320246 
0.0491904884 
0.04446515068 
0.04311056993 
0.03726177044 
0.04232930405 
0.03649755643 
0.04251164533 
0.04277357876 
0.04326730957 
0.04583713681 
0.03488415991 
0.04305909128 
0.04909976301 
0.03791478502 
0.04375462827 
0.04191812144 
0.03950886355 
0.03570064658 
0.03761686317 
0.03622064658 
0.03879012934 
0.0372498969 
0.03879687184 
0.03725690408 
0.03291271912 
0.03658212399 
0.04003824705 
0.03629858621 
0.03718846484 
0.03549741266 
0.03716520986 
0.03861955707 
0.0356317947 
0.04436028561 
0.03913549458 
0.04163540901 
0.03830487757 
0.03974480049 
0.03485744099 
0.04487412952 
0.05295338379 
0.05240426131 
0.04976832692 
0.04731021011 
0.04849380027 
0.03742930764 
0.0464290085 
0.05272502655 
0.04993414614 
0.03894643059 
0.04268240734 
0.04505302804 
0.05146142275 
0.04205386732 
0.04421682011 
0.04776016035 
0.04797351233 
0.04599847521 
0.04207471871 
0.04833098459 
0.04335486423 
0.05569195453 
0.03923692021 
0.03993269047 
0.03870104317 
0.0393486741 
0.0507853955 
0.04779150165 
0.05333413177 
0.04373837188 
0.04939674333 
0.03527330766 
0.05209821232 
0.04598771543 
0.05275575995 
0.0445561237 
0.04607624875 
0.0379185744 
0.03882248254 
0.04819896938 
0.04525608257 
0.04442216301 
0.04670444419 
0.03630810548 
0.03627693406 
0.04573678377 
0.03966870458 
0.04104352315 
0.03333193087 
0.04301314853 