# vtk DataFile Version 3.0
MOAB 4.9.0
ASCII
DATASET UNSTRUCTURED_GRID
POINTS 401 double
0 -0.5 0.5
0 0.5 0.5
0 -0.1666666667 0.5
0 0.1666666667 0.5
0 0.5 -0.5
0 0.5 0.1666666667
0 0.5 -0.1666666667
0 -0.5 -0.5
0 0.1666666667 -0.5
0 -0.1666666667 -0.5
0 -0.5 -0.1666666667
0 -0.5 0.1666666667
0 -0.02126765447 0.1601017923
0 0.2660948883 -0.008333797701
0 0.05137122643 -0.20496936
0 -0.2273126189 -0.1089735135
0 0.2822987801 0.2636869323
0 0.2968265563 -0.2759939649
5 -0.5 -0.5
0.3333333333 -0.5 -0.5
0.6666666667 -0.5 -0.5
1 -0.5 -0.5
1.333333333 -0.5 -0.5
1.666666667 -0.5 -0.5
2 -0.5 -0.5
2.333333333 -0.5 -0.5
2.666666667 -0.5 -0.5
3 -0.5 -0.5
3.333333333 -0.5 -0.5
3.666666667 -0.5 -0.5
4 -0.5 -0.5
4.333333333 -0.5 -0.5
4.666666667 -0.5 -0.5
5 -0.5 0.5
5 -0.5 0.1666666667
5 -0.5 -0.1666666667
4.666666667 -0.5 0.5
4.333333333 -0.5 0.5
4 -0.5 0.5
3.666666667 -0.5 0.5
3.333333333 -0.5 0.5
3 -0.5 0.5
2.666666667 -0.5 0.5
2.333333333 -0.5 0.5
2 -0.5 0.5
1.666666667 -0.5 0.5
1.333333333 -0.5 0.5
1 -0.5 0.5
0.6666666667 -0.5 0.5
0.3333333333 -0.5 0.5
0.5084359283 -0.5 -0.246779643
0.8358357978 -0.5 -0.2387101728
1.167643874 -0.5 -0.2361706031
1.500326008 -0.5 -0.2352820529
1.833430236 -0.5 -0.2350020348
2.16669243 -0.5 -0.234920931
2.500005095 -0.5 -0.2348992792
2.833330297 -0.5 -0.2348957423
3.166646792 -0.5 -0.2349064171
3.499893564 -0.5 -0.2349740869
3.831894115 -0.5 -0.236731549
4.162998943 -0.5 -0.241484453
4.491274983 -0.5 -0.2506857511
4.692398716 -0.5 0.00461702868
4.492377387 -0.5 0.2619161317
4.16424588 -0.5 0.2609909425
3.832311393 -0.5 0.2630189948
3.499751609 -0.5 0.2641798491
3.166610022 -0.5 0.2644263354
2.833320843 -0.5 0.2644765509
2.499999427 -0.5 0.2644842853
2.166678881 -0.5 0.264475437
1.833390682 -0.5 0.26442976
1.500230986 -0.5 0.2642436303
1.16805297 -0.5 0.2632759801
0.836949902 -0.5 0.2620775349
0.5083554197 -0.5 0.2633348019
0.3071954642 -0.5 0.006404978972
0.2297929452 -0.5 -0.2814082661
4.770068073 -0.5 -0.2825470778
4.770288554 -0.5 0.2866399654
0.2297768434 -0.5 0.2872812895
0.6665233571 -0.5 0.01156644831
1.001510126 -0.5 0.01451776231
1.334104383 -0.5 0.01603968363
1.666921691 -0.5 0.01670652949
2.00007609 -0.5 0.01692299885
2.333352786 -0.5 0.01698660943
2.666665728 -0.5 0.0170005971
2.999972966 -0.5 0.0169846398
3.333196278 -0.5 0.01687807564
3.665644884 -0.5 0.0155621656
3.997918536 -0.5 0.0124171886
4.333535741 -0.5 0.007961847882
5 0.5 -0.5
4.666666667 0.5 -0.5
4.333333333 0.5 -0.5
4 0.5 -0.5
3.666666667 0.5 -0.5
3.333333333 0.5 -0.5
3 0.5 -0.5
2.666666667 0.5 -0.5
2.333333333 0.5 -0.5
2 0.5 -0.5
1.666666667 0.5 -0.5
1.333333333 0.5 -0.5
1 0.5 -0.5
0.6666666667 0.5 -0.5
0.3333333333 0.5 -0.5
5 -0.1666666667 -0.5
5 0.1666666667 -0.5
4.513472974 0.1427860172 -0.5
4.152721503 0.2152170525 -0.5
3.827587081 0.2293704628 -0.5
3.498418453 0.2329113148 -0.5
3.166296147 0.2341281395 -0.5
2.833253188 0.2346004538 -0.5
2.499983375 0.2347850249 -0.5
2.166664871 0.2348574436 -0.5
1.833341502 0.234900389 -0.5
1.500047057 0.2350098181 -0.5
1.167709329 0.2369920214 -0.5
0.8360642461 0.2420518526 -0.5
0.5073680704 0.250997328 -0.5
4.725378902 -0.1148578401 -0.5
0.5073369183 -0.2617271643 -0.5
0.8351918853 -0.2606360203 -0.5
1.16735 -0.2627936538 -0.5
1.500151715 -0.264117654 -0.5
1.833365309 -0.2644207979 -0.5
2.166671736 -0.2645060286 -0.5
2.499996648 -0.264583271 -0.5
2.833318834 -0.2647624796 -0.5
3.16658312 -0.2652107875 -0.5
3.499364988 -0.2662073573 -0.5
3.827204477 -0.2661461919 -0.5
4.140898291 -0.2591184909 -0.5
4.439152201 -0.2115782334 -0.5
0.3063418788 -0.004023770848 -0.5
0.2294086565 0.2827280448 -0.5
0.2294024261 -0.2864835204 -0.5
4.2458358 -0.02918082078 -0.5
3.976290762 -0.02326675866 -0.5
3.660275154 -0.02014333536 -0.5
3.331807563 -0.0185049335 -0.5
2.999651351 -0.017641093 -0.5
2.666588983 -0.01725703154 -0.5
2.333318527 -0.01709637435 -0.5
2.000010213 -0.01700935228 -0.5
1.666737437 -0.01684459326 -0.5
1.333993699 -0.01532286266 -0.5
1.001383961 -0.01199395525 -0.5
0.6656144933 -0.007555288364 -0.5
5 0.5 0.5
5 0.1666666667 0.5
5 -0.1666666667 0.5
5 0.5 -0.1666666667
5 0.5 0.1666666667
5 0.02126765447 0.1601017923
5 -0.2660948883 -0.008333797701
5 -0.05137122643 -0.20496936
5 0.2273126189 -0.1089735135
5 -0.2822987801 0.2636869323
5 -0.2968265563 -0.2759939649
0.3333333333 0.5 0.5
0.6666666667 0.5 0.5
1 0.5 0.5
1.333333333 0.5 0.5
1.666666667 0.5 0.5
2 0.5 0.5
2.333333333 0.5 0.5
2.666666667 0.5 0.5
3 0.5 0.5
3.333333333 0.5 0.5
3.666666667 0.5 0.5
4 0.5 0.5
4.333333333 0.5 0.5
4.666666667 0.5 0.5
4.513472974 -0.1427860172 0.5
4.152721503 -0.2152170524 0.5
3.827587082 -0.2293704626 0.5
3.498418454 -0.2329113136 0.5
3.166296154 -0.2341281327 0.5
2.833253227 -0.2346004151 0.5
2.499983594 -0.2347848062 0.5
2.166666101 -0.2348562136 0.5
1.833348391 -0.2348935007 0.5
1.500085438 -0.2349714377 0.5
1.16802389 -0.2366774601 0.5
0.8370635923 -0.2410525064 0.5
0.508394355 -0.2499710433 0.5
4.725378902 0.1148578401 0.5
0.5084253213 0.2628155673 0.5
0.8359062371 0.2613503721 0.5
1.167672363 0.2631160166 0.5
1.500233383 0.2641993224 0.5
1.833384112 0.264439601 0.5
2.166675824 0.2645101169 0.5
2.499997504 0.2645841263 0.5
2.833319008 0.2647626536 0.5
3.166583155 0.2652108222 0.5
3.499364995 0.2662073641 0.5
3.827204479 0.2661461932 0.5
4.140898291 0.2591184911 0.5
4.439152201 0.2115782335 0.5
0.3072153379 0.004897229971 0.5
0.2297886052 -0.282348096 0.5
0.2297947985 0.2868758928 0.5
4.2458358 0.02918082088 0.5
3.976290763 0.02326675912 0.5
3.660275157 0.02014333781 0.5
3.331807576 0.01850494655 0.5
2.99965142 0.01764116201 0.5
2.666589345 0.01725739293 0.5
2.333320397 0.01709824428 0.5
2.000019749 0.01701888857 0.5
1.666785197 0.01689235294 0.5
1.334299266 0.01562842902 0.5
1.002140578 0.01275057185 0.5
0.6665242368 0.008465031925 0.5
0.5073315776 0.5 0.2456752922
0.8351275725 0.5 0.2380019475
1.167324739 0.5 0.2358514689
1.500209007 0.5 0.2351650525
1.833392758 0.5 0.2349645567
2.166681514 0.5 0.234910015
2.500002133 0.5 0.2348963166
2.833329535 0.5 0.2348949809
3.166646605 0.5 0.2349062297
3.49989352 0.5 0.2349740423
3.831894105 0.5 0.2367315387
4.162998941 0.5 0.2414844507
4.491274982 0.5 0.2506857506
4.692398716 0.5 -0.004617028844
4.492377387 0.5 -0.2619161318
4.164245879 0.5 -0.2609909431
3.83231139 0.5 -0.2630189981
3.499751593 0.5 -0.2641798646
3.166609949 0.5 -0.2644264077
2.833320514 0.5 -0.2644768795
2.499997973 0.5 -0.2644857387
2.166672675 0.5 -0.2644816427
1.833365385 0.5 -0.264455057
1.500134417 0.5 -0.2643402001
1.167721302 0.5 -0.2636076486
0.835978453 0.5 -0.2630489839
0.5073321133 0.5 -0.2643581082
0.3063180667 0.5 -0.007282376486
0.2293965955 0.5 0.2810119165
4.770068073 0.5 0.2825470777
4.770288554 0.5 -0.2866399655
0.2293967027 0.5 -0.2876614303
0.665606413 0.5 -0.01248339236
1.000923138 0.5 -0.01510475057
1.333849147 0.5 -0.01629491961
1.666829548 0.5 -0.01679867298
2.000046534 0.5 -0.0169525551
2.333344061 0.5 -0.01699533435
2.666663308 0.5 -0.01700301666
2.999972328 0.5 -0.01698527855
3.333196116 0.5 -0.01687823765
3.665644845 0.5 -0.01556220534
3.997918526 0.5 -0.01241719808
4.333535739 0.5 -0.007961850093
1.375141144 -0.2461651713 0.2560896277
1.417381525 0.007512579672 0.250081718
1.086824536 -0.007597928401 0.252130717
1.099643588 -0.2689225972 0.2062719315
1.588503361 -0.2471207529 0.211689353
1.348479867 -0.003845115658 0.001624785829
1.339244485 -0.296759218 -0.0885283798
1.153778672 0.2719214857 -0.1842077225
0.9122950435 0.2541272342 -0.005703503732
0.9528492689 0.01251527574 0.0262817014
1.309333563 0.2483943403 -0.009769577533
1.417443752 0.2424477488 -0.2554776669
0.9178765416 0.2498433739 -0.2565682232
4.309491158 0.1412375122 -0.01140953694
4.25058794 0.2766150534 0.1875281036
4.127167225 0.133021906 -0.1201165542
4.274414539 -0.05758948997 0.2784187496
0.9815956354 -0.01711304113 -0.2564838231
0.6703208089 -0.1754054278 0.2950952351
2.557757139 0.2375563234 0.2117588967
2.17043519 -0.1703723818 -0.2645691931
2.365689278 -0.2565751672 -0.00497456314
2.337111473 -0.003414578969 0.0379232578
2.097008944 -0.2470259219 0.002040149411
2.458332777 -0.2843779624 -0.1503432691
1.887294173 -0.1827156991 -0.2648600042
2.000453711 0.2591590285 0.2485713661
2.007241726 0.005199314561 0.01377401128
2.258951664 0.2599473894 -0.05914694443
2.249832392 0.2585344017 0.2393315881
1.914672494 -0.01278175414 0.2674865127
2.661688328 -0.3019190133 -0.2398196459
2.686421156 -0.291105032 -0.01667713001
2.588913202 -0.04478560761 -0.3103770912
2.684403181 -0.04018025845 -0.02038442343
2.934816599 -0.2715301514 -0.2623491585
2.360738754 0.02970260195 0.2952134609
2.006477594 -0.004472270142 -0.2405071855
2.323111057 0.03414579108 -0.272780031
2.587221861 -0.2389557362 0.2612092793
2.498186827 0.1161589101 -0.1412081122
0.5740775466 -0.2904984355 -0.1211318895
0.4988281429 -0.1484864503 0.1552403867
0.678817451 -0.001929512131 -0.1616235077
0.4544209242 -0.01463381946 -0.2731429338
1.625213385 0.2662410736 0.01052254252
1.709147811 -0.007440823596 -0.003760399297
1.583600521 -0.008723898791 -0.249917984
1.228841186 -0.01531186793 -0.2670218647
1.577008843 -0.2145535946 -0.3108778
3.166851282 -0.1307943016 0.13485533
3.021768093 0.0200133156 0.01668345183
3.205291033 -0.2925651371 -0.148742184
2.92031765 -0.2754900157 -0.06099553406
3.309677601 0.01712094247 0.2548448145
3.00126791 0.0198868718 0.2532554269
3.329063654 -0.001729416894 -0.007645028178
2.955765724 -0.2528938055 0.2368071526
1.940608978 -0.2417649627 0.2574975789
1.707020164 0.02600163035 0.2687016428
1.896277666 0.2412743717 -0.001971870428
1.748807788 0.2518633008 0.2407591194
4.518580914 0.3134091794 -0.03554993495
4.517454147 -0.02911021933 0.1495460421
4.524633408 0.05297560245 -0.1732410491
4.73786974 0.2998627424 -0.257111907
4.769330978 0.1869610101 0.1019334942
4.084283829 0.2040560246 0.2703921795
3.973986626 -0.0191980768 -0.002488071797
3.935742855 0.290987134 -0.08340524882
3.909628868 0.02591312118 0.2828290462
2.653107405 0.0227533225 0.2438910902
3.821427584 0.1329447776 0.138826251
[...]
CELL_DATA 1506
SCALARS TALLY_TAG double 1
LOOKUP_TABLE default
0.2512407952 
0.2295454054 
0.2417472511 
0.2406528167 
0.2358204552 
0.2435549722 
0.2763045726 
0.2473344005 
0.2691406969 
0.2419181305 
0.2544325483 
0.2681607514 
0.2332879277 
0.2541398057 
0.2599081066 
0.2569474723 
0.2574207657 
0.248955915 
0.2567816857 
0.2545085928 
0.2717477348 
0.2356042297 
0.2489063409 
0.2592475743 
0.2556137618 
0.2542401547 
0.260285577 
0.2543798737 
0.2513791267 
0.2643161669 
0.2523333374 
0.2471257737 
0.2530688755 
0.262017934 
0.2615939967 
0.2368613883 
0.2568057434 
0.2507291489 
0.2612965016 
0.2479118921 
0.2504404855 
0.2237538242 
0.2520069813 
0.2416006048 
0.2534343919 
0.2321844125 
0.2549377844 
0.2597562197 
0.2523468265 
0.2568147753 
0.2337432626 
0.250863467 
0.2370093014 
0.2439051475 
0.2493766613 
0.2372118163 
0.2475494511 
0.2254486418 
0.2578455259 
0.2541484851 
0.2465085022 
0.2426325062 
0.2433430601 
0.2411176367 
0.262713976 
0.2652970063 
0.2614720499 
0.2446643648 
0.2618632873 
0.2610817747 
0.2506374997 
0.2503204952 
0.2579464631 
0.2633345698 
0.249846498 
0.2368733829 
0.24962179 
0.236821106 
0.2435207555 
0.249901491 
0.2354028097 
0.2398543821 
0.2574844125 
0.2410128071 
0.2558224017 
0.2558890248 
0.2362027226 
0.2523019811 
0.2404624636 
0.2465075664 
0.247610433 
0.2441992198 
0.2589363087 
0.246849401 
0.2433169032 
0.2477085761 
0.2357292975 
0.2521154218 
0.261125967 
0.2487513706 
0.2473214125 
0.245656202 
0.250504606 
0.2324326839 
0.2359014997 
0.2459706537 
0.2327509282 
0.2410304339 
0.2450580915 
0.2526029547 
0.2538053618 
0.2434422992 
0.2468077901 
0.2496392787 
0.2554555079 
0.2412226485 
0.2548071152 
0.2357173854 
0.245746642 
0.2595866079 
0.2600185272 
0.2664958876 
0.2222836435 
0.2407765974 
0.2534074498 
0.2449557114 
0.2440217102 
0.2322202594 
0.248449395 
0.2543029942 
0.2584470852 
0.2502651085 
0.2639474795 
0.2449587857 
0.2527941965 
0.2395617873 
0.2477741166 
0.2493839222 
0.2381767865 
0.2276703721 
0.2553782622 
0.2388809379 
0.2295907441 
0.2512406579 
0.260556921 
0.2588406628 
0.2606635823 
0.2610306426 
0.2390054774 
0.2595011373 
0.2404904146 
0.2266624338 
0.2644645913 
0.2443904011 
0.2392894874 
0.2347700796 
0.2500817954 
0.2355294585 
0.2544028386 
0.2493879532 
0.2509644003 
0.2481892189 
0.2457368874 
0.2463521005 
0.2584934876 
0.2578600675 
0.2278276228 
0.2588708684 
0.2411628354 
0.245674115 
0.25445708 
0.2581039304 
0.2299361297 
0.2503060391 
0.2397354578 
0.237105364 
0.2341676138 
0.23506656 
0.247262086 
0.2480844524 
0.2427271948 
0.2586875517 
0.2384587819 
0.2501061968 
0.2548582977 
0.2512917386 
0.2474165383 
0.2548577993 
0.2397150452 
0.2396609738 
0.2431916009 
0.2550721173 
0.233422283 
0.2678216454 
0.2589771414 
0.2406333542 
0.2362155586 
0.245502366 
0.242176203 
0.2483467079 
0.2634883376 
0.2550604022 
0.2432131807 
0.2431376368 
0.2621180476 
0.260795108 
0.2548447999 
0.2374495531 
0.2499836658 
0.240058571 
0.2514176412 
0.264639673 
0.2587679458 
0.2501621971 
0.2647695217 
0.2700877548 
0.2682184545 
0.2515596369 
0.2520859458 
0.2543683197 
0.2536269822 
0.2446997394 
0.2470299995 
0.2548401014 
0.2566776988 
0.2617425221 
0.277071394 
0.2475685125 
0.2537829662 
0.2496790742 
0.2481120513 
0.2375782855 
0.2479232598 
0.2321225442 
0.2550963612 
0.2512660083 
0.2331337348 
0.2532753399 
0.2577006262 
0.2220163581 
0.2422898491 
0.2426875701 
0.2419298874 
0.2553790668 
0.2520861626 
0.2341553684 
0.252370615 
0.2553525541 
0.2392164545 
0.2627944365 
0.2388187083 
0.2555883881 
0.2581769411 
0.2472727239 
0.2304667469 
0.254173785 
0.2572410417 
0.2586814212 
0.2484578594 
0.2466703529 
0.2621178695 
0.2530597711 
0.2493250507 
0.2616017225 
0.2379277761 
0.2628016704 
0.2499147931 
0.2457940748 
0.2605247466 
0.2569611275 
0.2461464301 
0.2575562469 
0.2739579421 
0.2235528503 
0.2343599509 
0.2395482356 
0.2433870278 
0.2527677497 
0.25751055 
0.2551815548 
0.2597858758 
0.2491417442 
0.2475457716 
0.2678622912 
0.2540991315 
0.2463874508 
0.24830502 
0.2433223113 
0.2573986855 
0.2404057486 
0.2601659506 
0.2625089411 
0.2337648078 
0.2436767282 
0.2260682534 
0.2421261775 
0.2406039622 
0.2418378684 
0.2390156784 
0.2465159567 
0.2556690918 
0.2461494709 
0.2413141544 
0.2556681058 
0.2509305114 
0.2426595287 
0.2386126164 
0.2367909981 
0.2467466141 
0.2529672607 
0.2493562677 
0.2547126639 
0.2564190441 
0.2448500738 
0.2738921432 
0.2488945148 
0.2444496549 
0.2290611687 
0.2341357821 
0.2411758391 
0.2518911434 
0.2610718328 
0.2503842342 
0.2516217089 
0.2448226259 
0.2510427849 
0.2368395718 
0.247862096 
0.2547750549 
0.259178222 
0.2640627504 
0.260824751 
0.235783975 
0.2620356347 
0.2447803412 
0.2498440095 
0.2523103598 
0.2598229224 
0.2486348938 
0.2517520513 
0.2397877275 
0.248038255 
0.2387868721 
0.2483847935 
0.2693024467 
0.2422957201 
0.2464839298 
0.2556984062 
0.2598536291 
0.252944759 
0.253031789 
0.2463092297 
0.253857289 
0.2446748607 
0.26387401 
0.2571652516 
0.2599424175 
0.2444798137 
0.2505347616 
0.2543665875 
0.2607889863 
0.2426764948 
0.2591859935 
0.2380208693 
0.2479512123 
0.2393425074 
0.2467045714 
0.2191219794 
0.223230851 
0.2575188825 
0.2487614432 
0.2365819236 
0.2527999 
0.2592080502 
0.2594222681 
0.2604711975 
0.2488340403 
0.2804053495 
0.2490785633 
0.2458664943 
0.2606761555 
0.242039326 
0.242564962 
0.2490138723 
0.2413495577 
0.2450447393 
0.2361329837 
0.247700486 
0.2592736086 
0.2455949791 
0.2665571498 
0.2396488697 
0.2526478707 
0.238843254 
0.2410111163 
0.2570226199 
0.2531583971 
0.2419097426 
0.2533869882 
0.2244631758 
0.2355998349 
0.2509559704 
0.248358924 
0.2427190965 
0.2487129695 
0.2543962065 
0.2488767834 
0.2423073334 
0.2610552184 
0.2340993799 
0.2365823619 
0.2632881922 
0.256298383 
0.2550442619 
0.2617903255 
0.2425199267 
0.2684229836 
0.2454743654 
0.2577488245 
0.2454566674 
0.2551925633 
0.2303562312 
0.2617198223 
0.2383695949 
0.2616353408 
0.2665554158 
0.2496584242 
0.2597928269 
0.2601354753 
0.2502144953 
0.2331911485 
0.2374904983 
0.2472657112 
0.2444090169 
0.2399887901 
0.2514034886 
0.244748007 
0.2445441249 
0.2521048925 
0.249103028 
0.2443164362 
0.2522230698 
0.2258571817 
0.22205803 
0.2421034051 
0.2555312062 
0.2410853259 
0.2494991805 
0.2444426194 
0.2391085844 
0.2488585822 
0.2588986992 
0.2275300913 
0.2310167213 
0.2611875 
0.250735052 
0.2402959947 
0.2307676032 
0.2294226203 
0.2427004871 
0.2411616859 
0.2477750697 
0.2561195569 
0.2433790943 
0.2458528631 
0.2649428871 
0.2522994105 
0.2477928843 
0.2513887595 
0.2524416716 
0.2313844474 
0.2550922268 
0.268688827 
0.2539332113 
0.2389060059 
0.2381836318 
0.2359277991 
0.2445295804 
0.2471261354 
0.2413828501 
0.2615080206 
0.2437316316 
0.2391912772 
0.2614901586 
0.2549084275 
0.2588645785 
0.2510130374 
0.2332859516 
0.2471140467 
0.2502610114 
0.2608324206 
0.2503984814 
0.255417013 
0.2499999915 
0.2473699963 
0.2453673453 
0.2452732884 
0.2566003518 
0.236403854 
0.2705956035 
0.2451693251 
0.2524059975 
0.2414802076 
0.2391310676 
0.2392666874 
0.2409009121 
0.2268014116 
0.2442822925 
0.2229128982 
0.2460930749 
0.2362794734 
0.2513844944 
0.2488303945 
0.2518987679 
0.2603803615 
0.2479761764 
0.2382561683 
0.2477316537 
0.2654975349 
0.2532428372 
0.24909127 
0.2613870744 
0.2411194584 
0.2550863674 
0.2597230502 
0.2682203031 
0.2332559238 
0.2576050613 
0.2646563256 
0.2595972417 
0.2402557574 
0.2347199378 
0.2450511265 
0.2481696423 
0.2577295038 
0.2557401538 
0.2497589423 
0.2559630156 
0.2619331671 
0.2450898296 
0.2489436471 
0.2446997016 
0.2456110562 
0.2500517547 
0.2404952421 
0.2335753039 
0.2607231483 
0.2522722857 
0.2280090327 
0.2144311001 
0.2482780916 
0.2455197324 
0.2543132821 
0.2545514141 
0.2422164507 
0.2524332122 
0.2397479543 
0.253992309 
0.248013759 
0.2463643395 
0.2254938533 
0.2465790631 
0.2535662586 
0.2514347737 
0.2516925115 
0.2606133303 
0.2561061231 
0.230753381 
0.2249185641 
0.2471058924 
0.251612043 
0.2520954088 
0.253058145 
0.2592386094 
0.2568225849 
0.2369334855 
0.2278407951 
0.2542250947 
0.242507814 
0.2553209794 
0.2478573806 
0.2489373531 
0.2486897823 
0.2457208892 
0.2514904515 
0.2615468455 
0.2438306525 
0.2398964178 
0.2506422921 
0.2643784838 
0.2522772291 
0.2369940329 
0.2564501827 
0.2499300892 
0.2679189152 
0.2527528851 
0.2310697939 
0.24715948 
0.2529766366 
0.2620046599 
0.2550724503 
0.2298117738 
0.2467546637 
0.2300658361 
0.250291025 
0.232925502 
0.2496143557 
0.2404941403 
0.238175431 
0.2470468749 
0.2366801898 
0.2247750758 
0.2502128951 
0.25851051 
0.2487823334 
0.2401420248 
0.2241235884 
0.242129454 
0.246565902 
0.2468001697 
0.258626723 
0.235329948 
0.2511683034 
0.2581620361 
0.2514927375 
0.2542360483 
0.2489931759 
0.2670339802 
0.2557725413 
0.240796679 
0.2429975923 
0.2539509542 
0.2396820731 
0.2339106235 
0.2396708036 
0.2447924689 
0.25577681 
0.2365592319 
0.2568668593 
0.235393561 
0.2397770435 
0.232695125 
0.2430839813 
0.2567844644 
0.2516947027 
0.2391066497 
0.2567732722 
0.2429472666 
0.2442521471 
0.2563074233 
0.2524167242 
0.2621436866 
0.250161755 
0.247868043 
0.2445309685 
0.2387317625 
0.2557498121 
0.2452184758 
0.2426580674 
0.2506291327 
0.2511498013 
0.2402548984 
0.2458786187 
0.2500833667 
0.2542870469 
0.2349020295 
0.2430706915 
0.2514863482 
0.2327517926 
0.2327027897 
0.2513398887 
0.2552506206 
0.2517809958 
0.2524605967 
0.2528500258 
0.2544845606 
0.2454458416 
0.2435886488 
0.2596284061 
0.2443109343 
0.2703627251 
0.2517761987 
0.2570562241 
0.2403498135 
0.2500631953 
0.2646483291 
0.2430073223 
0.2524365045 
0.2496328749 
0.2446718914 
0.2444013742 
0.2637970481 
0.2618488661 
0.2405610788 
0.2466019065 
0.2346595495 
0.245326776 
0.2516302279 
0.2530716844 
0.2454394095 
0.2423432124 
0.252829972 
0.2338502506 
0.2536325056 
0.245175073 
0.2430004444 
0.2337299854 
0.2498886978 
0.2547874123 
0.2595055031 
0.266190134 
0.2504340877 
0.2387017219 
0.2539431155 
0.2573490251 
0.2507528247 
0.2468875838 
0.2312616256 
0.2771367345 
0.2677264307 
0.2828981955 
0.2660597356 
0.232029348 
0.2532463955 
0.2624725372 
0.2612540924 
0.2513888086 
0.2545031797 
0.2491823161 
0.2527546877 
0.2406640094 
0.2543686401 
0.2246227729 
0.2473866695 
0.2393515148 
0.2299768841 
0.2355539996 
0.2426922624 
0.2523621716 
0.2639326638 
0.2472842175 
0.2595997875 
0.250529089 
0.26303398 
0.2501633889 
0.24069843 
0.2556662123 
0.2405021333 
0.232031411 
0.2457748352 
0.247196044 
0.2374669677 
0.240325646 
0.2562864619 
0.2535381605 
0.2406512128 
0.2232456032 
0.2545983169 
0.2469216186 
0.2381416574 
0.2652610471 
0.2525031882 
0.2510031574 
0.2452292818 
0.2337830058 
0.2388610282 
0.248452967 
0.237901673 
0.2417779297 
0.248117613 
0.2350975392 
0.2458894287 
0.2569711265 
0.2467418707 
0.2551824654 
0.2407721908 
0.2384308659 
0.2504647986 
0.2533665504 
0.2680118043 
0.2579520746 
0.2648504222 
0.2509480081 
0.2464847371 
0.2215203152 
0.236246544 
0.2435898248 
0.2331362696 
0.2651028455 
0.2571438088 
0.258833516 
0.2356352326 
0.2375357351 
0.2635270862 
0.2484890547 
0.243700277 
0.2716247337 
0.2513019041 
0.2478891631 
0.2484605986 
0.2498911502 
0.2408542588 
0.2511473673 
0.2482529026 
0.2590228095 
0.2402672788 
0.2597294995 
0.2462369035 
0.2577017599 
0.2725800573 
0.2493707282 
0.2376671339 
0.2586819647 
0.2507910859 
0.2529554076 
0.2454261206 
0.2454887277 
0.2580585832 
0.2406348434 
0.2549476946 
0.2478970314 
0.2567952094 
0.2644668997 
0.2411160382 
0.2483398706 
0.2462644251 
0.2466448029 
0.2401492093 
0.2649005897 
0.2329922301 
0.2349484047 
0.2436136636 
0.257266876 
0.2434870827 
0.2404068334 
0.235640289 
0.2431801889 
0.2387064158 
0.2442805006 
0.2423107964 
0.2548542318 
0.2544119908 
0.2551500979 
0.2471120396 
0.2652309662 
0.2731431269 
0.2717693779 
0.2296766629 
0.2413686337 
0.256570426 
0.2475795436 
0.2654498218 
0.2618093252 
0.2392337717 
0.2630469685 
0.2637714716 
0.2514550764 
0.2469740736 
0.2566325461 
0.2493105249 
0.2640243212 
0.247397076 
0.245770454 
0.2559536212 
0.2491145673 
0.2548673735 
0.2425904711 
0.2487818595 
0.2654172312 
0.2573492811 
0.2504673947 
0.2547091869 
0.2342559187 
0.2398839509 
0.2559484321 
0.2577336712 
0.2321529885 
0.2431320738 
0.2581164957 
0.2478360277 
0.2472955275 
0.245561869 
0.2594815862 
0.2527542572 
0.2429294902 
0.2651806359 
0.2506607849 
0.2446770336 
0.236447483 
0.2564570806 
0.2451088127 
0.2380420424 
0.2412583839 
0.2643363164 
0.2512165159 
0.262377757 
0.242129202 
0.245824162 
0.2442231821 
0.2397762469 
0.2288543698 
0.2561497607 
0.2654037836 
0.2475789523 
0.25469578 
0.2380694439 
0.2436520069 
0.2526425144 
0.2368333543 
0.245147748 
0.2588968717 
0.2493095692 
0.2385535877 
0.2373734917 
0.2636297492 
0.2780829202 
0.2671501848 
0.2470751446 
0.2430440318 
0.2350545003 
0.2434531833 
0.2495018895 
0.2333928185 
0.274568195 
0.2639771516 
0.2329423619 
0.2458308699 
0.2579527959 
0.2491037561 
0.2513333848 
0.2417383865 
0.2411447949 
0.2607523065 
0.2551093212 
0.2635643209 
0.2360693347 
0.2483317175 
0.2537534258 
0.2514186465 
0.2540023978 
0.257067793 
0.2389466087 
0.2644710243 
0.232692683 
0.2446509263 
0.2650168022 
0.2597158336 
0.2566631476 
0.2445303456 
0.2424441042 
0.2466321995 
0.2555378838 
0.2482764319 
0.2525460387 
0.2719273551 
0.2530454548 
0.2373127822 
0.2515836722 
0.2463025755 
0.2368266666 
0.2591637592 
0.2531062699 
0.2414464948 
0.2560161052 
0.2570998052 
0.2596502718 
0.2497996058 
0.2526733111 
0.2556085645 
0.2326454154 
0.2582270995 
0.2541739303 
0.2376690233 
0.2615454877 
0.2588160659 
0.2568186202 
0.2550351424 
0.2698784252 
0.2527792534 
0.2523461358 
0.2601090825 
0.2441704469 
0.2478992434 
0.2528644159 
0.2468189832 
0.2472386106 
0.2550780514 
0.2580755108 
0.2600125568 
0.2449510054 
0.2499613196 
0.2513627426 
0.2581706236 
0.2455170442 
0.2605002287 
0.2324991196 
0.2521565404 
0.2381340375 
0.2541041996 
0.2323353628 
0.2529418736 
0.2665412758 
0.2619842989 
0.2554985287 
0.2550757671 
0.2480511454 
0.2351211724 
0.2292323263 
0.2430532035 
0.2434340941 
0.2576872633 
0.2347539313 
0.2522260572 
0.2673869447 
0.2460986681 
0.2442608349 
0.2429061229 
0.2600887914 
0.2649240533 
0.2580833952 
0.2550717399 
0.2515893106 
0.2588961299 
0.2403537036 
0.2585324639 
0.254734367 
0.2572391365 
0.2306019998 
0.2752289059 
0.2543796083 
0.2354027365 
0.2549102582 
0.2520263821 
0.2438627753 
0.2529094566 
0.2564503522 
0.2732202632 
0.2483889469 
0.2619710491 
0.2397774102 
0.266570321 
0.2376913727 
0.243905933 
0.2419199517 
0.2576836745 
0.2325923666 
0.2432155155 
0.2500890071 
0.2494958347 
0.2513792903 
0.2605192093 
0.2533021275 
0.2734888593 
0.2501378534 
0.2474474905 
0.2500466237 
0.2553601508 
0.2460213364 
0.248269125 
0.2520708925 
0.2481323666 
0.2494820936 
0.2419815462 
0.2396146942 
0.2431884619 
0.2505334157 
0.2274330571 
0.2447624156 
0.247445757 
0.2590902545 
0.2545898184 
0.2365767955 
0.2668683706 
0.2559196011 
0.2524475752 
0.2559488797 
0.2548750954 
0.2395539842 
0.2524061048 
0.2224800034 
0.2562865581 
0.2553069519 
0.2514009763 
0.2272068152 
0.2599582819 
0.2498449524 
0.2513878679 
0.2496637945 
0.2492020197 
0.259569916 
0.2513795549 
0.2595735498 
0.2610078438 
0.2315147426 
0.2428221852 
0.2402727775 
0.2476713646 
0.2665514719 
0.2483689699 
0.2600153864 
0.2403612053 
0.236893953 
0.2440608877 
0.2553778081 
0.2562045712 
0.2454875505 
0.2482686721 
0.2313386337 
0.2420568426 
0.2655674991 
0.258181963 
0.2659331396 
0.2470015307 
0.2469536055 
0.266242768 
0.2496826465 
0.2532284699 
0.249409973 
0.2338773135 
0.2563070196 
0.2574256871 
0.2453708241 
0.2633337414 
0.2577283936 
0.2520914439 
0.2645748008 
0.2625743262 
0.2647705064 
0.2642544544 
0.25128728 
0.2508982151 
0.247451867 
0.2513464035 
0.2254611681 
0.256665617 
0.2595909516 
0.2585057052 
0.2540956529 
0.2385163791 
0.2484295389 
0.2536000763 
0.2516219853 
0.2711977321 
0.2305382928 
0.23487239 
0.2275458907 
0.2447694681 
0.256140885 
0.2582893408 
0.2381446906 
0.2337995851 
0.237251878 
0.2315994507 
0.2400224759 
0.2550348839 
0.2478610638 
0.2349565249 
0.2503251616 
0.2520585096 
0.2581762667 
0.2582432205 
0.241557075 
0.2530825757 
0.2460250167 
0.2380591702 
0.251022694 
0.2575673537 
0.238806206 
0.2462438922 
0.2585634642 
0.2506053709 
0.2491105071 
0.241760651 
0.2321574681 
0.2686891245 
0.2368057657 
0.2405810634 
0.2656078435 
0.2580779164 
0.2620467072 
0.2595579357 
0.2487295797 
0.247060155 
0.2580811057 
0.2546946755 
0.2592009941 
0.2580896681 
0.2610856877 
0.2577447292 
0.2516390483 
0.2553247142 
0.2380843643 
0.2652194761 
0.2441512512 
0.2360093466 
0.2577220557 
0.2304140567 
0.2764005461 
0.2667008864 
0.2474669899 
0.259151673 
0.2451445427 
0.2346919421 
0.2485564878 
0.2319928636 
0.26434421 
0.2380934434 
0.264618471 
0.2589794953 
0.2442965435 
0.2475974011 
0.2366360125 
0.2265412653 
0.2600649384 
0.2674265468 
0.2578450591 
0.2488446447 
0.2544495412 
0.2482835575 
0.2579501804 
0.2630970405 
0.2644733408 
0.2609157264 
0.233268433 
0.2575856831 
0.2486952193 
0.2521720912 
0.2580853754 
0.2353228701 
0.2592437193 
0.2483096128 
0.2584799994 
0.2324125631 
0.2678893782 
0.2555699193 
0.2319388636 
0.2495048989 
0.2366364533 
0.2647074472 
0.2411014724 
0.24997148 
0.2646966535 
0.2364275969 
0.2610433152 
0.2588763566 
0.2451848698 
0.2465699234 
0.259153354 
0.2526181758 
0.2546626747 
0.2549242351 
0.2600115926 
0.2644972797 
0.2400576929 
0.2417542566 
0.2622429605 
0.2507330469 
0.2551197432 
0.2473599797 
0.2546385581 
0.2664343616 
0.2550096919 
0.23970371 
0.2505493734 
0.2477940031 
0.2424793066 
0.2587658472 
0.2438247764 
0.2550940111 
0.2490018678 
0.2337880953 
0.2580843804 
0.264253741 
0.2506237274 
0.2502168743 
0.2726040783 
0.2551256215 
0.2545038457 
0.2576259532 
0.255125538 
0.2466491841 
0.2467686645 
0.2563961886 
0.2596627515 
0.266559922 
0.2458602044 
0.2553423336 
0.2499591692 
0.2581169366 
0.2527813544 
0.2586434167 
0.2456873283 
0.2592102907 
0.2447667295 
0.2596211963 
0.2582337298 
0.2681531966 
0.2487499766 
0.2557842416 
0.2596258495 
0.2525530382 
0.2542452235 
0.2350847402 
0.2666470705 
0.2553364757 
0.2403727472 
0.2186166081 
0.251632172 
0.2323128254 
0.2352458145 
0.2527904088 
0.2460293303 
0.2482733232 
0.266513838 
0.2513751097 
0.2430506605 
0.2499627013 
0.2596712306 
0.2490465595 
0.247394802 
0.266394175 
0.2583820316 
0.2393140086 
0.2665997283 
0.2318018321 
0.2415238597 
0.2450319428 
0.2528766018 
0.2371923862 
0.2513882054 
0.2488049815 
0.24375148 
0.2352887846 
0.2368799423 
0.2326178133 
0.2379414931 
0.2447689281 
0.2597175522 
0.2458884604 
0.2294306752 
0.2541703079 
0.2297440718 
0.2384820509 
0.2579080479 
0.2555343086 
0.2349724589 
0.2581248998 
0.2437906379 
0.2513003977 
0.2467095501 
0.2551224925 
0.2482787715 
0.22777707 
0.2481234463 
0.23645546 
0.2679799127 
0.2394103724 
0.2502402785 
0.2362940015 
0.254636158 
0.2225963987 
0.2436126844 
0.2542740666 
0.2458640166 
0.2658418398 
0.2327094086 
0.2465236837 
0.245867747 
0.2386751538 
0.2550579357 
0.2708101396 
0.2517997916 
0.2442201956 
0.2575991076 
0.2299160779 
0.2460840269 
0.2398656567 
0.2457333467 
0.2269450022 
0.2433509945 
0.2336320734 
0.2346903063 
0.2539624045 
0.2390097507 
0.2532780995 
0.2453936094 
0.2500211865 
0.2389712949 
0.2360560522 
0.251392437 
0.2378713273 
0.2536413863 
0.221840107 
0.2404103613 
0.2582456718 
0.2528076262 
0.2412619784 
0.2445608307 
0.2309081009 
0.2568230941 
0.2416083457 
0.2537501609 
0.235972772 
0.2513967049 
0.2464177929 
0.2570314301 
0.2438226853 
0.2467054439 
0.2509356483 
0.2287411792 
0.2449270138 
0.2410272763 
0.2388840279 
0.2346332215 
0.269499975 
0.2204742723 
0.238284555 
0.2547321971 
0.2651116711 
0.2462934072 
0.2480299172 
0.2576461567 
0.2431272273 
0.2282857725 
0.2489537437 
0.2513815205 
0.2455871517 
0.2288016193 
0.2508770339 
0.2509285884 
0.2503857683 
0.25867132 
0.2335363202 
0.249736684 
0.2483278166 
0.2456859627 
0.2391706272 