# vtk DataFile Version 3.0
MOAB 4.9.0
ASCII
DATASET UNSTRUCTURED_GRID
POINTS 246 double
-6.123233996e-18 -7.498798913e-34 0.1
-0.03243642024 -3.972315822e-18 0.09459322725
-0.01621821012 -0.02809076394 0.09459322725
0.01621821012 -0.02809076394 0.09459322725
0.03243642024 -1.440466424e-17 0.09459322725
0.01621821012 0.02809076394 0.09459322725
-0.01621821012 0.02809076394 0.09459322725
-6.123233996e-18 -7.498798913e-34 -0.1
-0.03243642024 -3.972315822e-18 -0.09459322725
-0.01621821012 -0.02809076394 -0.09459322725
0.01621821012 -0.02809076394 -0.09459322725
0.03243642024 -1.440466424e-17 -0.09459322725
0.01621821012 0.02809076394 -0.09459322725
-0.01621821012 0.02809076394 -0.09459322725
0.01547016054 0.09835261846 -0.009350752607
-0.01971855331 0.09733815375 -0.01168171562
0.0876958207 0.04537858369 -0.01581857052
0.06757705269 0.07363082302 -0.003441489509
0.08419750215 -0.05118605353 -0.01705193702
0.09818909979 -0.01806627991 -0.005701772726
0.0005276322263 -0.09839582394 -0.01783209006
0.03542289203 -0.09329989008 -0.006352104534
-0.07888736839 -0.0597090123 -0.01454706011
-0.05715372654 -0.08166150795 -0.008052928762
-0.08560662811 0.04930623267 -0.01550485868
-0.07563928939 -0.06482092876 0.008771835369
-0.09414441117 -0.03327804066 0.005422347719
0.006282842776 -0.09856402613 0.01567350121
-0.02789535729 -0.09596283852 0.003603146572
0.0873260941 -0.04579936867 0.01663042749
0.06609368181 -0.07485788027 0.005284220548
0.08461245304 0.05026937044 0.01771223266
0.09821640599 0.01783946988 0.005940615173
0.004059277285 0.09837806246 0.01747223782
0.03889231695 0.09168161001 0.009048208046
-0.09893675723 0.01435652162 0.002325587392
-0.08423300313 0.05118656742 0.016874137
-0.06033763131 0.07972519999 -0.001806304171
0.04227465584 0.08763456838 -0.0230875702
0.09543976222 0.01147533226 -0.027560271
0.05890403091 -0.07577720407 -0.02807366178
-0.03295062122 -0.08997422099 -0.02861636101
-0.04295212651 0.08510538891 -0.03020244371
-0.09668934844 -0.01035548164 -0.02332239049
-0.05320802697 -0.08153352756 0.02282958059
0.03930568789 -0.08785155322 0.02715082864
0.09539950001 -0.01157624308 0.0276572955
0.0600939473 0.0744374616 0.02911669296
-0.09556026081 -0.005894312882 0.02887028974
-0.03182919452 0.09165545826 0.02421114097
0.01119535965 0.09251917025 -0.03626109567
-0.01747600144 0.08728786793 -0.04555675017
0.08059732993 0.03645534955 -0.0466377304
0.06599771667 0.06576885475 -0.03631472345
0.07219171459 -0.05037555889 -0.04744111521
0.08968580873 -0.02213955868 -0.03829224012
-0.00588699976 -0.08768944577 -0.04770643914
0.02708201545 -0.0881492116 -0.03868179072
-0.08383535927 -0.0396466659 -0.0374135593
-0.06109961625 -0.07000545609 -0.03696042494
-0.06504040385 0.0670446606 -0.03570377224
-0.07873320219 0.04372823689 -0.04346175526
-0.0920782782 0.01997370245 -0.03350584866
-0.07453876432 -0.05705933209 0.03447035298
-0.08501161518 -0.02949256266 0.04362584134
0.00995730466 -0.08804760466 0.0463516062
-0.02267226951 -0.09047549197 0.03605764202
0.0804562546 -0.03617523066 0.04709717383
0.06518075246 -0.06568168294 0.03791287426
0.07242899638 0.04978160539 0.0477056836
0.08970908097 0.02196923344 0.03833580016
-0.00460693945 0.08827624967 0.04675553286
0.02870419161 0.0873830428 0.03924631468
-0.09006395747 0.02343479211 0.03659636708
-0.0757241954 0.04736277859 0.0449734748
-0.06040544959 0.07153291418 0.03513152216
0.03754202322 0.07594791914 -0.05312730061
0.08226353182 0.005021415614 -0.05663476598
0.04623852144 -0.06802437485 -0.05687427856
-0.03520074947 -0.07470975181 -0.05638581578
-0.04125009224 0.07190635788 -0.05592768176
-0.08482577824 -0.006414279289 -0.05256847313
-0.04660875287 -0.07115270794 0.0525824715
0.03783642044 -0.07343739435 0.05635028305
0.08224638412 -0.004961788806 0.05666491816
0.04676856871 0.06741535303 0.05716529679
-0.08295059398 -0.0005683608383 0.05584689717
-0.03408526915 0.0760892767 0.05521427712
0.007763978133 0.07662178096 -0.06378732888
-0.01747223667 0.07114511403 -0.06806683256
0.06775051404 0.02593991392 -0.06882578523
0.05690513902 0.0513570334 -0.06422040387
0.05618709334 -0.04531063376 -0.06920951532
0.07206794677 -0.02316627164 -0.06534167817
-0.01085679639 -0.07141311727 -0.06915415138
0.01662956529 -0.07379168628 -0.06540829147
-0.07064095094 -0.02710277102 -0.06538574656
-0.05799270025 -0.05190487228 -0.06279116938
-0.05934487659 0.04984609112 -0.06319456323
-0.07467790993 0.02286712029 -0.06245241851
-0.06274871039 -0.04572623189 0.06302151269
-0.07053953744 -0.02104798992 0.06768423581
0.01221084432 -0.0717312666 0.06859679784
-0.01546537193 -0.07531951919 0.06393584519
0.06780740963 -0.02531171271 0.06900342309
0.05692387601 -0.05013560761 0.06516205329
0.0563161001 0.0450682113 0.06926292803
0.07202876269 0.02319714248 0.0653739239
-0.0101113208 0.07194054358 0.06871913402
0.01715996202 0.07369354731 0.06538193014
-0.07204124635 0.02654389949 0.06407402144
-0.05547412372 0.0534619235 0.0637529947
0.02848192597 0.05545376588 -0.0781898954
0.06048748882 0.001786690736 -0.07961200558
0.03194875689 -0.05133583058 -0.07964866246
-0.02932320971 -0.05358543081 -0.07917544428
-0.03234592929 0.05223274459 -0.07890171894
-0.06263721002 -0.001791769094 -0.07793182588
-0.03365807569 -0.05277929974 0.07798384102
0.02920911986 -0.05322645094 0.07945924891
0.06056928671 -0.00146162235 0.07955642757
0.03197816829 0.05120617154 0.0797202907
-0.06120210575 0.001644932248 0.07906703769
-0.02851081907 0.05413813564 0.07909611537
-0.0018131494 0.05408957217 -0.08408942069
0.04536029995 0.02872880238 -0.08436290122
0.04695697724 -0.02511958157 -0.08464070481
0.001634969437 -0.05324240714 -0.08463198542
-0.04686022246 -0.0284040912 -0.08365002782
-0.04860579694 0.02663026128 -0.08323644447
-0.04777452175 -0.0258029055 0.08397502688
-0.001922389451 -0.05386986768 0.08422791565
0.04546056483 -0.02789306049 0.08458909044
0.04694889166 0.02510192668 0.08465042734
0.001986128465 0.05330429492 0.08458550371
-0.04663826996 0.02872355311 0.08366498235
-0.02282793075 0.01286946982 -0.002673310228
-0.04798640683 0.03352741525 -0.02417912707
-0.04870273918 0.006351385266 0.01568228193
-0.05637349933 0.0276890099 0.01893514022
-0.02854210511 -0.01385851018 -0.0347779803
-0.03228688985 -0.02609728277 0.002476249589
-0.04440842569 -0.01166947559 -0.01283575781
0.004479460418 -0.007190402132 -0.0147408545
-0.02441293746 -0.008205925114 0.02206681669
-0.01095508225 0.00198810827 -0.04743557796
0.003991114441 0.01973241381 -0.02457443811
0.01149600651 -0.006411617622 0.02666788176
0.001481711632 0.03000740707 -0.0004877392203
-0.02247146331 0.02908192575 -0.02586631291
-0.02098319679 0.05690923333 -0.00228618132
0.05150577053 0.04995335639 0.03325561062
0.05299882963 0.03065340221 0.01440812089
0.05234706774 0.01534296293 0.03539848328
0.0481092222 0.03107895702 0.05612023175
0.01177306753 0.01681108586 0.074662745
0.04731721058 0.0006938430015 0.05572739989
0.01519113686 0.02789174765 0.04053900018
0.02509679273 0.01660263352 0.003337853821
0.04770726338 0.005253662355 -0.01002200786
0.0323748216 -0.001167921349 -0.02947445028
0.02936366946 -0.02719111182 -0.002031298354
0.009098126553 0.05580539256 -0.01687132195
0.02869984694 0.05573172495 -0.0004583919363
0.01898772456 0.05681260675 0.02975889482
0.0320090726 0.02615521103 -0.02231494896
-0.01329190377 0.0249644015 0.05110966787
0.0151489554 0.05201603845 0.05585144088
0.03132529929 -0.02502749115 0.0290385019
-0.04896108806 0.02834210917 0.04690485075
0.06382040679 -0.01242560148 0.002823941177
0.03890410811 0.05808593333 -0.02943830006
-0.01977338269 0.002844503149 -0.07386638224
-0.04250101373 0.003854500363 -0.06069399789
-0.02854055166 0.0310341455 0.02154579945
-0.06246769801 -0.0207284335 0.01668315008
-0.06350198388 -0.02984000556 -0.01038052328
0.004347859416 -0.03492434695 0.02360840514
0.0009003796731 -0.03445438668 -0.005034737289
-0.02175788581 -0.04299234971 0.02117132582
0.05479595438 -0.00668191351 -0.05588984117
0.03598235175 0.00630366616 -0.07357901335
0.04287989065 -0.02178665623 -0.05681109801
-0.04825285822 -0.05059468001 -0.01692320034
-0.04033468664 -0.0596101433 0.001544520142
-0.06017272919 -0.04068736732 0.00815715827
-0.05814533681 -0.01534592919 -0.04588438198
-0.05137125775 -0.02776108868 0.03713249043
-0.02558045648 -0.02119847201 0.05471588299
-0.008960628882 -0.02471181564 -0.07271003723
-0.07308016717 -0.0001625518926 0.010648733
-0.05715209618 0.00778461108 -0.02831301279
-0.05583681539 -0.03967631981 -0.03747076169
-0.07258308679 0.02066479996 -0.01306351833
0.0767038092 0.02168761939 -0.01090869866
0.07471755147 0.00084081979 -0.02891385555
0.07443393767 0.007299779914 0.01911307126
0.05704182759 0.0296717789 -0.03096355125
0.05527051911 0.04949158803 -0.0002189098741
0.01891193353 -0.007207534742 -0.06307421625
0.02461641096 -0.02464610338 -0.06925480813
0.04845886305 0.01870248839 -0.05152639747
0.06476356834 -0.02473041415 -0.03017002344
0.006899569649 0.01881911978 -0.06080436707
0.00497916108 -0.03621377051 0.05442332104
-0.06078300253 0.005526196677 0.04126093909
0.02585137635 -0.02869295701 -0.03283547983
0.02513558418 -0.05494163185 0.02384067886
0.01277762745 -0.06476871669 -0.01495761424
-0.01395403221 0.05585958436 0.04349949956
0.06407764554 -0.02350669168 0.03797816113
0.05720615387 -0.03559944779 -0.01307109278
0.04984171316 -0.03940985352 0.01251307689
0.03215438128 -0.07245203108 0.00840164721
0.0340824537 -0.0660764128 -0.0196915064
-0.04889683053 -0.02044910938 0.06047713384
-0.0263545122 0.01281150896 0.0723432824
-0.06831377745 -0.0121443551 0.04398301616
-0.02486981079 -0.048131302 0.05403076857
-0.04013013095 -0.0425873287 -0.04831316695
-0.035825748 0.05837452412 -0.03684808314
-0.008272908628 0.0725325942 -0.01995029673
-0.005461244844 0.04912930354 -0.05200510845
-0.02418059856 0.03346373886 -0.06182688475
0.003312927438 0.07628174126 0.004352529533
-0.0005201889435 -0.0683215335 0.01194876339
0.01336925197 -0.06061935425 0.0492406711
[...]
CELL_DATA 1010
SCALARS TALLY_TAG double 1
LOOKUP_TABLE default
5.411841202 
5.619792236 
5.446500068 
5.499580623 
5.656789397 
5.611608202 
5.452747514 
5.680016788 
5.629938102 
5.865468795 
5.192114983 
4.619949502 
5.530430329 
5.018317907 
5.131047239 
4.792806382 
5.371717037 
5.574980791 
5.057180908 
5.777249061 
5.410426664 
5.296762944 
4.698188937 
5.569673177 
5.532440792 
5.515876859 
4.659541667 
5.476599591 
4.687857087 
4.762705007 
5.42549091 
5.493307831 
5.428774147 
5.437751385 
5.55152857 
5.02366079 
5.168339959 
5.583374446 
5.006182653 
5.436477399 
5.569542018 
5.156175299 
4.623732198 
5.222590456 
5.671533836 
5.530825618 
5.318081114 
5.378345425 
4.432236545 
5.314042717 
5.526443681 
5.176416619 
5.121064138 
5.53841037 
5.483890664 
4.797546125 
4.733938981 
4.812188143 
5.268462236 
4.973996454 
4.703359218 
5.215279748 
5.44482217 
5.546433071 
5.393172581 
5.649400701 
5.316030216 
5.463996165 
5.428495676 
5.584943334 
5.525434954 
5.513159171 
5.305957033 
5.581712934 
5.58268298 
5.647942955 
5.383470322 
5.368574463 
5.520909732 
5.557248442 
5.383473733 
5.449795275 
5.48284075 
5.40722313 
5.222885629 
5.511198297 
5.078946188 
5.512690882 
5.477375452 
5.425656755 
5.422982918 
4.696304261 
5.219356381 
5.498465115 
4.822119078 
4.76644245 
5.294472999 
4.835199061 
4.897680786 
5.117099386 
5.159442464 
5.262733746 
5.29208568 
4.97897766 
4.794634328 
4.77676691 
4.739822768 
5.134403305 
5.272794871 
4.812251325 
4.734747986 
4.794318965 
4.955165448 
5.034472134 
5.323693898 
5.069629931 
5.067058082 
4.797397332 
5.705427439 
4.747499666 
5.371372914 
5.70769922 
5.546478728 
4.5982073 
5.520086035 
5.264304508 
5.517057171 
4.79204781 
5.144269881 
5.015306168 
5.335194982 
5.305551217 
4.859954185 
4.85976321 
4.997374223 
5.182492579 
5.382278091 
5.475511991 
4.754932039 
5.596559329 
5.355013832 
5.376454849 
5.388375969 
5.488670028 
5.273137312 
5.644220739 
5.450543251 
5.555340194 
5.438184159 
5.695321399 
5.469898324 
5.576592077 
5.239122785 
5.434348124 
5.505670303 
5.350482655 
5.49286979 
5.45038515 
5.409931082 
5.307952862 
5.158629863 
5.56363142 
5.413981834 
4.873018053 
5.445469727 
5.244510089 
5.613250207 
5.255893367 
5.215943368 
5.23317049 
5.215105688 
5.502498751 
5.27576406 
5.324999169 
5.295147753 
4.85012047 
4.897347815 
4.794983176 
5.127082822 
5.127778889 
5.270037639 
4.593936811 
4.895045607 
5.00323209 
5.222498778 
4.948370436 
4.678682274 
5.094993362 
4.818289609 
4.66003265 
5.436893135 
5.604122582 
5.353018324 
5.73776871 
5.443545033 
5.132683477 
5.139677546 
4.792195414 
5.198283799 
4.954531459 
4.876525327 
5.049050809 
4.930532553 
4.720951947 
4.719218865 
4.937753718 
4.781411063 
4.830485707 
4.903048258 
5.095822695 
4.69290701 
4.699577989 
5.041466288 
5.187037692 
4.898605265 
4.999718766 
5.162860293 
4.892293987 
5.189669547 
5.308670976 
5.161352425 
5.036055089 
5.129104528 
5.344497639 
4.730868958 
5.349104161 
5.359840944 
5.441165335 
5.389506982 
5.436795544 
5.262304435 
4.916065549 
4.882295944 
4.633617654 
5.540509897 
4.759357053 
5.40817519 
5.197997227 
4.957532513 
5.074653856 
4.986913686 
5.478587785 
5.341099006 
5.214451075 
4.970445834 
5.230437062 
5.558965291 
5.012498823 
5.159556454 
4.715253079 
4.845411372 
5.194137601 
4.892717571 
4.921851954 
4.666799608 
4.912367018 
5.119505516 
4.980781374 
5.066307733 
5.097120221 
4.97954894 
5.262565234 
5.181322424 
4.887964314 
4.732570181 
4.939955693 
4.776108842 
5.167724364 
5.140302184 
4.809695242 
4.949802961 
4.986332827 
4.435428817 
5.181089196 
5.231864 
5.010333477 
5.032442446 
5.262496326 
5.271929573 
5.062570739 
5.069073536 
5.379311553 
5.315091839 
4.905654525 
5.183658558 
4.989771453 
4.822543785 
5.163240258 
5.488281138 
5.320969511 
4.966667208 
5.108195777 
5.259753006 
5.252783408 
4.864967396 
4.983086552 
4.740161852 
4.67014125 
5.22442439 
5.498679032 
5.257400985 
5.648624381 
5.39140804 
5.08198466 
5.302446801 
4.948284994 
5.243048914 
4.755362728 
5.57025784 
5.265979261 
4.919818751 
4.896373232 
5.131286359 
5.283695663 
5.094150732 
5.415515739 
4.81921521 
4.779880819 
4.838770581 
5.36883419 
4.805161908 
5.204515642 
4.974420532 
4.964261231 
4.953916909 
5.141548439 
5.220552476 
5.046346336 
5.480709916 
4.942210638 
5.036732033 
5.102663509 
4.713392012 
5.635477672 
4.933935227 
4.878287787 
5.077125459 
5.498854837 
4.684511269 
4.966989452 
5.336399212 
5.287349011 
5.385066797 
5.554559815 
5.207467846 
5.129102244 
5.123176806 
4.850123501 
5.081407222 
4.79099531 
5.079111875 
5.285127704 
4.744185279 
5.118513918 
4.74611985 
5.354776245 
4.838224666 
5.260717512 
4.940024447 
4.664954779 
5.416146873 
5.576947935 
4.934439725 
4.842631064 
5.160034817 
4.936533455 
5.337117627 
5.074375191 
5.170922877 
5.114432833 
4.976633355 
4.67395998 
5.260101886 
4.697423112 
5.425020472 
5.083922197 
4.961737279 
5.118343838 
4.815910109 
4.73946333 
5.253296589 
5.072229135 
5.359796088 
5.178890425 
5.396545365 
5.36412516 
5.319178133 
5.16249861 
5.407984648 
5.183520501 
5.093189531 
4.807254304 
4.916606565 
5.091098205 
5.040880866 
4.973346524 
5.238325716 
4.719325291 
4.778673771 
4.765622695 
5.166030953 
4.980541806 
5.128278282 
4.793100525 
4.770668584 
4.573713142 
4.971474161 
5.388161041 
4.860565541 
4.977703287 
4.921824634 
4.931471558 
5.385409116 
5.28225314 
5.270837485 
5.519322769 
5.194718708 
5.352397399 
4.70609168 
5.207056305 
5.405953428 
5.321795262 
5.19834738 
5.56614163 
4.82378123 
5.430839612 
5.180681028 
5.396972311 
4.851623893 
5.077008813 
4.759969565 
4.856778244 
5.029016006 
4.978936884 
5.242820134 
5.254220685 
5.500641245 
4.953044034 
5.113579124 
5.132289598 
5.462503235 
4.786021707 
4.853975305 
5.479278482 
5.301870549 
5.486638359 
5.426185064 
5.394443596 
5.353506389 
5.151744039 
4.771074279 
5.164704695 
5.644353608 
5.021480515 
4.817107092 
4.860940113 
5.198191891 
5.461281317 
4.929262517 
5.008595667 
4.974347176 
5.019833181 
4.759390383 
4.709722623 
5.508204912 
4.761245245 
5.551070434 
4.685791624 
4.9787492 
5.301589387 
5.350336067 
4.85854304 
5.427838083 
5.148274545 
4.971937767 
5.031689615 
4.720292986 
4.904295771 
5.009381149 
5.095938718 
5.24081758 
4.782539414 
4.593642239 
5.065211868 
4.898833497 
4.96199946 
4.633274851 
5.468428261 
5.319900801 
4.774903151 
5.095933061 
4.832654076 
5.282709024 
5.217331834 
5.170741454 
5.264568533 
4.754503056 
4.806590953 
4.811414269 
4.779128345 
4.956854567 
4.528782773 
5.361290766 
5.528114808 
5.325977058 
4.705475901 
5.36601308 
4.967724365 
4.860440882 
5.310939111 
5.17643062 
5.067107545 
4.778219485 
5.121301886 
5.040120687 
5.162621384 
5.235278186 
5.304739246 
5.357915387 
5.015333588 
5.410404309 
5.2615635 
4.535144953 
5.111611289 
5.516543519 
4.74425608 
5.377049044 
5.019851552 
5.374861994 
5.191586049 
5.068579762 
4.710122393 
4.609812831 
5.652989116 
4.823673974 
5.219753089 
5.190606679 
5.067284977 
4.786758514 
4.801789554 
5.142774794 
5.291022857 
5.560804092 
5.135066427 
4.915608564 
4.562831185 
5.170504319 
5.331221942 
5.2886851 
5.028620407 
4.95640026 
4.986404266 
5.504988985 
4.749859154 
4.994450733 
4.935895406 
5.395500744 
4.972767671 
5.128100238 
4.802951994 
5.186612145 
5.183285725 
5.402928229 
4.984400332 
4.887107007 
5.08799668 
5.386392785 
5.079457801 
5.014076848 
4.957464611 
4.778164973 
5.013059623 
4.665601248 
4.849936506 
4.765863741 
4.920194093 
5.198066858 
4.845195118 
4.80145752 
4.772420461 
5.119940646 
5.070161681 
5.713925165 
4.748231642 
5.397692147 
5.254478919 
5.430436259 
5.236262615 
5.263424873 
4.940065819 
5.164144806 
4.750167458 
5.240782031 
5.472487499 
5.197105576 
5.206224862 
5.002326886 
4.988940518 
5.025087422 
4.771716698 
4.832670169 
4.752502515 
4.932245183 
4.742948591 
5.386380577 
5.296066346 
5.322345296 
4.772929644 
4.81702832 
5.222793575 
4.968302514 
5.495246177 
5.149074115 
5.25732737 
5.374917443 
5.057984212 
4.622438119 
4.587978688 
4.997707472 
5.016070325 
5.061538623 
4.884069985 
5.321662042 
5.253422052 
4.848840677 
4.945464823 
4.550578359 
5.330845557 
5.095540099 
4.718767063 
5.14668471 
4.48973521 
4.557292609 
5.033138581 
5.389409171 
4.658774296 
5.122602617 
5.370792406 
4.805532341 
4.740662701 
5.450586811 
4.766372212 
4.558823814 
4.915724674 
4.529421149 
4.87108768 
4.636229772 
4.655761881 
4.668812837 
4.966148023 
4.738008257 
4.480828539 
5.397229746 
4.701416732 
4.827087642 
4.557681269 
4.644290391 
4.923108643 
4.570178515 
4.831791168 
4.920214886 
4.90641344 
4.700610852 
4.762819749 
4.775171173 
4.888654906 
4.397594825 
4.526928674 
4.578766581 
4.995406944 
4.606658548 
5.125743524 
5.139312681 
4.773065732 
5.084910816 
4.55817358 
5.391623064 
4.550896048 
4.660487733 
4.92083693 
4.654531827 
4.904705277 
4.892286072 
4.712782114 
4.573134917 
4.693342326 
4.524124986 
4.804070052 
4.744091014 
4.651046127 
5.010899358 
4.590175734 
5.296670816 
4.647775524 
4.591229308 
4.698477553 
4.672158513 
4.728867837 
4.574002119 
4.62014387 
4.727159132 
4.815417675 
5.242643759 
4.654694466 
4.548280377 
5.006736207 
4.67120809 
4.825653204 
5.403956447 
4.622493648 
4.573170359 
5.047796683 
4.729433258 
4.695491494 
5.30299031 
4.707371441 
5.069462369 
4.683057126 
5.083102235 
4.754188092 
4.869422939 
4.80838578 
5.08629526 
4.695525371 
4.847727399 
4.586963697 
5.105672463 
4.695745327 
4.641054624 
4.911755414 
5.16777592 
5.137220084 
4.564827815 
4.5264957 
5.467843068 
4.860750137 
5.447355864 
4.601857559 
4.506744225 
5.073915611 
4.808083088 
5.093788094 
4.864800692 
4.902500903 
4.846141659 
4.706042028 
4.505795383 
5.095037603 
5.199649891 
4.827087376 
4.847917287 
4.927742599 
4.771719585 
5.220110259 
4.653945485 
4.60901237 
5.077939531 
4.786082212 
5.345041239 
4.639628557 
5.025535778 
4.487892709 
4.777700873 
5.389105845 
4.829017547 
4.689834836 
5.312432211 
4.783232368 
4.802185408 
4.550412897 
5.099100119 
4.708154738 
5.512352191 
4.377103638 
4.809602073 
4.687499664 
5.51243912 
5.010826982 
5.004862904 
4.968684498 
4.739245506 
4.789246147 
4.739179416 
4.741595154 
4.884427936 
4.841056789 
4.711027046 
4.740354593 
5.382084734 
4.879641188 
5.441851192 
4.702382132 
4.37426374 
4.800696951 
4.643073712 
5.153899648 
5.136695877 
4.683390986 
4.662300923 
5.459737371 
4.701064265 
4.58889076 
4.35074366 
5.135190232 
4.658704193 
4.501102186 
4.861728342 
4.582971844 
5.328137104 
4.579421696 
4.666682863 
4.895585481 
4.870942222 
4.676301797 
4.579858181 
5.201755807 
4.728019973 
4.80073366 
4.762290079 
4.549723994 
4.540223775 
4.751263933 
4.648356543 
5.096602859 
4.929083118 
5.454362275 
5.299081423 
4.688131457 
5.384637221 
4.798257622 
4.369025871 
4.599025907 
5.368455082 
4.687206639 
5.640036881 
5.424626466 
4.706314525 
4.89740214 
5.347078744 
4.732049072 
4.738944077 
5.126456202 
4.584983955 
4.62512993 
4.82577928 
4.81636999 
4.639808535 
4.739191873 
4.593627709 
4.639769804 
5.103225706 
4.513109777 
4.817915631 
4.632150125 
4.770329536 
4.736518645 
4.718624239 
4.570973559 
4.591298328 
4.684564198 
4.959709608 
4.645211507 
4.673281165 
4.661189338 
4.700568733 
4.927783955 
4.723025123 
4.469204369 
4.699591802 
4.694474981 
4.575783493 
4.912100452 
4.622041311 
4.687057783 
4.597386502 
5.028714238 
4.876420896 
4.795222226 
4.58667579 
4.876717796 
5.425525511 
5.176531445 
5.120939694 
4.943993342 
5.331895343 
4.930789115 
4.977229787 
5.401765022 
5.44179306 
4.788257559 
4.847632249 
4.684603547 
5.077552285 
4.715528135 
4.967342678 
4.812001355 
4.87647843 
4.834036521 
4.522886045 
4.583912138 
4.755663986 
4.553351976 
4.599259132 
4.663436712 
4.787574871 
5.240635519 
4.978192297 
4.68410587 
5.501853026 
4.599626685 
5.245625527 
4.881677046 
4.41892814 
5.27718185 
5.355284519 
5.528569414 
4.6507607 
5.014125856 
4.831805979 
4.509754695 
4.667341626 
4.543785035 
4.716930237 
4.659098213 
4.919654446 
4.560282024 
4.562180965 
4.737626254 
5.392933388 
4.686790943 
5.37981816 
4.70354813 
4.699655302 
4.74025252 
4.583896401 
4.805502097 
4.854396457 
5.008131367 
4.801494722 
4.598588999 
4.810465246 
5.267953313 
4.558258175 
4.704114071 
4.535099113 
5.029653652 
4.726786212 
5.662552629 
4.70913652 
4.803134459 
4.536292107 
4.90307216 
4.783793926 
4.598544532 
4.880940753 
5.455628646 
4.783446323 
5.404782282 
4.692788354 
4.683426951 
5.418458961 
4.902105365 
5.021175512 
4.719715245 
4.615184606 
4.847411821 
5.416425024 
5.161817649 
4.67862859 
4.456445076 
4.98775268 
5.35324704 
5.307381854 
4.665392294 
4.52845034 
4.664907974 
4.589522661 
4.977721296 
4.667311377 
4.885103913 
4.896300242 
5.35150147 
4.934906707 
4.777569616 
4.651575173 
4.608958365 
4.638250034 
5.075351477 
5.187690876 
4.542457641 
4.851010481 
4.567749838 
5.715508069 
5.358061435 
5.438993974 
4.8335642 
4.712734737 
4.865609705 
5.271552045 
5.391954356 
4.971212056 
5.128422765 
5.619632052 
5.316271557 
5.29614084 
5.392174998 
5.380638278 
5.452295361 
4.97785465 
5.335174207 
SCALARS ERROR_TAG double 1
LOOKUP_TABLE default
0.02271179735 
0.02302908171 
0.01857043737 
0.02115458658 
0.02104292483 
0.02004378597 
0.01882493365 
0.02396952131 
0.02171684313 
0.02192796653 
0.02712828365 
0.02297832953 
0.02308223642 
0.02202512308 
0.02499313212 
0.02548462285 
0.02306050085 
0.02012393898 
0.02156634704 
0.02434188168 
0.02074918479 
0.02145214573 
0.02226172643 
0.01864553463 
0.01940454089 
0.02157329047 
0.02603227415 
0.02161755109 
0.02457881708 
0.02608300194 
0.01726040079 
0.02053612194 
0.02630225073 
0.02313568097 
0.02167113218 
0.02875726614 
0.02804734415 
0.0258385642 
0.02011725371 
0.022963612 
0.0210580892 
0.02316732309 
0.0263748846 
0.02568476017 
0.02141903587 
0.02427850471 
0.02378463025 
0.02429039329 
0.02552762223 
0.02253877578 
0.02499575011 
0.02444149121 
0.02157915438 
0.02497145505 
0.02386924135 
0.02386202337 
0.0254700425 
0.02941660388 
0.02238778706 
0.02476613106 
0.02708910043 
0.0211801685 
0.01959668935 
0.0209012151 
0.02011912042 
0.02105203988 
0.02240535017 
0.01914659322 
0.02348540137 
0.01867559294 
0.02052266693 
0.01880593492 
0.02400515627 
0.02210576849 
0.02613159086 
0.02657373955 
0.02345766891 
0.02035653524 
0.02346663353 
0.02007263022 
0.0212904609 
0.01843424498 
0.01901333779 
0.02406837966 
0.02249909464 
0.01959390433 
0.02053662854 
0.02112375542 
0.02118860975 
0.02376213248 
0.02347248044 
0.0249103723 
0.02158652795 
0.02095273675 
0.02313668745 
0.02442515057 
0.02192884833 
0.02597080423 
0.02098216531 
0.02202868324 
0.0209772829 
0.02267982615 
0.02545212726 
0.02389288429 
0.02363245602 
0.03035795347 
0.02600567449 
0.02160203393 
0.02522791511 
0.0304164826 
0.02378726026 
0.0228853719 
0.02442324974 
0.02250761954 
0.02026854628 
0.01821329901 
0.02046516845 
0.02361214702 
0.02001450103 
0.02910777708 
0.02437421372 
0.02164795785 
0.02169967029 
0.02395832361 
0.02164920933 
0.02393035693 
0.02016593634 
0.02561049255 
0.02340523791 
0.02453033999 
0.02228995229 
0.02250923809 
0.02086825456 
0.02507990162 
0.02489798006 
0.0203118192 
0.01984412999 
0.02003595834 
0.02522926679 
0.02295135939 
0.02077345702 
0.02171722609 
0.02207649456 
0.01990416655 
0.02166381228 
0.02299105278 
0.02339276124 
0.02042761979 
0.02369584195 
0.02200845618 
0.02293781451 
0.01977320885 
0.02412313828 
0.02386239492 
0.02124400877 
0.02337732404 
0.02355582575 
0.02207478462 
0.02413219613 
0.02355341657 
0.02660839428 
0.02663468853 
0.0196847705 
0.02818580182 
0.01970176538 
0.02018653658 
0.02281628851 
0.02384956759 
0.02372347673 
0.02471838097 
0.02211713307 
0.02044289647 
0.02275653589 
0.02177368637 
0.02570789932 
0.0234557362 
0.02636792636 
0.02266079262 
0.02602752298 
0.03037268914 
0.02385352092 
0.02421881973 
0.02381411931 
0.02078798662 
0.01817716493 
0.02423994298 
0.02548676334 
0.02423598967 
0.02390118411 
0.02300335217 
0.02109798869 
0.01871965738 
0.02113092875 
0.0254492845 
0.02418821378 
0.02045674628 
0.02657669751 
0.02435144303 
0.02239480714 
0.0252376954 
0.02120822079 
0.02395880723 
0.02181548874 
0.02318525262 
0.02618591669 
0.02378440891 
0.02442458576 
0.01916496214 
0.02372195287 
0.02602843931 
0.02614795652 
0.02405946198 
0.02428127902 
0.02736583863 
0.02031054508 
0.02206879489 
0.0242428356 
0.02498593495 
0.02276875402 
0.02728763816 
0.02364119896 
0.02562845758 
0.02186323604 
0.01763421727 
0.02616501225 
0.02198473851 
0.02174314767 
0.02589631814 
0.03049254094 
0.02985107922 
0.02165148645 
0.02409844856 
0.02185196922 
0.02559323984 
0.02061917938 
0.02402303019 
0.02187542992 
0.02259824683 
0.02319688845 
0.02608067477 
0.02315526224 
0.01777010634 
0.02596880898 
0.02488191435 
0.02355853825 
0.02519458605 
0.02178915117 
0.02690074417 
0.02789511378 
0.02710249164 
0.03069246154 
0.02397190282 
0.02026183828 
0.0246621726 
0.02042089256 
0.02386795603 
0.02570079532 
0.02151271454 
0.02355992393 
0.02445886623 
0.02067343102 
0.02147799614 
0.02348859928 
0.02288241094 
0.02326649065 
0.02435004126 
0.02336806895 
0.02393370356 
0.0228871233 
0.02687376191 
0.02464305261 
0.02910448616 
0.02221854225 
0.02562878403 
0.02599712325 
0.02570117599 
0.02462455148 
0.02665038037 
0.02646918318 
0.02776227643 
0.02326103982 
0.02000868434 
0.02497551389 
0.02130662456 
0.02330164529 
0.02163867128 
0.02595714505 
0.02097434401 
0.02098962159 
0.0239094052 
0.02418104211 
0.02663511917 
0.02411818944 
0.02292103814 
0.02262804328 
0.02105523743 
0.02375311534 
0.0262775624 
0.02084369396 
0.02301732761 
0.02516875284 
0.02378457301 
0.02383916292 
0.02090499451 
0.02509918088 
0.02510082302 
0.02248774568 
0.02589422373 
0.02120988918 
0.02307912052 
0.02192812164 
0.02022574522 
0.02714450482 
0.02321284031 
0.02639092645 
0.02652471533 
0.02366328061 
0.02449026842 
0.02816529219 
0.01923156924 
0.02713158933 
0.02492346082 
0.02490147949 
0.02548322995 
0.02407863809 
0.0263046107 
0.02620292783 
0.02422876915 
0.02268216614 
0.02261897881 
0.02509815998 
0.02331488326 
0.02869090075 
0.02358845332 
0.02067808485 
0.02600365682 
0.0225715303 
0.02063903949 
0.02355087555 
0.02635277569 
0.02299435383 
0.02072710717 
0.02271951351 
0.02195854854 
0.026245245 
0.02664504429 
0.02539261301 
0.02790354982 
0.022430804 
0.02594587146 
0.02610646457 
0.02780749509 
0.02825897501 
0.02521076855 
0.02203373641 
0.02211571223 
0.02592463917 
0.02250179337 
0.02320650386 
0.0215853716 
0.01924579174 
0.01720571501 
0.02390090485 
0.02118654716 
0.02125529023 
0.02573761875 
0.02582794873 
0.02696789192 
0.02285243955 
0.02177933952 
0.02668208237 
0.02733046832 
0.02244203214 
0.02645255848 
0.02277986016 
0.02038277254 
0.02507352858 
0.02217717104 
0.02334022685 
0.02679297947 
0.02468191373 
0.02478756631 
0.01990482574 
0.02226868073 
0.02033371103 
0.02082212184 
0.0204629583 
0.02525627813 
0.02358746349 
0.02274539612 
0.02838890917 
0.02973712104 
0.02262030093 
0.02536024064 
0.02486273212 
0.02529763572 
0.02339872725 
0.02593711626 
0.02118866582 
0.02456936092 
0.02830053529 
0.02594332935 
0.02482653318 
0.02706898072 
0.026666608 
0.0237674795 
0.02019700413 
0.02417382289 
0.02282344636 
0.02164093422 
0.02925535063 
0.02391725014 
0.02146647272 
0.02185387744 
0.02466107408 
0.02052647551 
0.01990461668 
0.01930811548 
0.02624146067 
0.02360978124 
0.01662811856 
0.02427917122 
0.02193478474 
0.01843961601 
0.02265799343 
0.0221087801 
0.02753632591 
0.02958956441 
0.0247614705 
0.02448837338 
0.02688199105 
0.02211206868 
0.02511531732 
0.02635597933 
0.02339596984 
0.0230803507 
0.02138908045 
0.02275337474 
0.02254040605 
0.02638147844 
0.02307789218 
0.02164231669 
0.02255937569 
0.02026615103 
0.02011757803 
0.02336721817 
0.02253070845 
0.02372537896 
0.02133532783 
0.02348858601 
0.0277810562 
0.02285990742 
0.02048357679 
0.02649546871 
0.0238259564 
0.02187091572 
0.02463681523 
0.02363437119 
0.02426526355 
0.02161366625 