# vtk DataFile Version 3.0
MOAB 4.9.0
ASCII
DATASET UNSTRUCTURED_GRID
POINTS 2811 double
-0.441866696 -1.43915224 -60.9600182
-0.441866696 -0.239152238 -60.9600182
-0.441866696 -1.43915224 60.9599991
-0.441866696 -0.239152238 60.9599991
-0.866130769 -1.26341629 -60.9600182
-1.04186666 -0.839152217 -60.9600182
-0.866130769 -0.414888173 -60.9600182
-0.0176026132 -0.414888173 -60.9600182
0.158133313 -0.839152217 -60.9600182
-0.0176026132 -1.26341629 -60.9600182
-0.441866696 -1.43915224 -60.4742813
-0.441866696 -1.43915224 -59.9885445
-0.441866696 -1.43915224 -59.5028076
-0.441866696 -1.43915224 -59.0170708
-0.441866696 -1.43915224 -58.5313339
-0.441866696 -1.43915224 -58.0455971
-0.441866696 -1.43915224 -57.5598602
-0.441866696 -1.43915224 -57.0741234
-0.441866696 -1.43915224 -56.5883865
-0.441866696 -1.43915224 -56.1026497
-0.441866696 -1.43915224 -55.6169128
-0.441866696 -1.43915224 -55.131176
-0.441866696 -1.43915224 -54.6454391
-0.441866696 -1.43915224 -54.1596985
-0.441866696 -1.43915224 -53.6739616
-0.441866696 -1.43915224 -53.1882248
-0.441866696 -1.43915224 -52.7024879
-0.441866696 -1.43915224 -52.2167511
-0.441866696 -1.43915224 -51.7310143
-0.441866696 -1.43915224 -51.2452774
-0.441866696 -1.43915224 -50.7595406
-0.441866696 -1.43915224 -50.2738037
-0.441866696 -1.43915224 -49.7880669
-0.441866696 -1.43915224 -49.30233
-0.441866696 -1.43915224 -48.8165932
-0.441866696 -1.43915224 -48.3308563
-0.441866696 -1.43915224 -47.8451157
-0.441866696 -1.43915224 -47.3593788
-0.441866696 -1.43915224 -46.873642
-0.441866696 -1.43915224 -46.3879051
-0.441866696 -1.43915224 -45.9021683
-0.441866696 -1.43915224 -45.4164314
-0.441866696 -1.43915224 -44.9306946
-0.441866696 -1.43915224 -44.4449577
-0.441866696 -1.43915224 -43.9592209
-0.441866696 -1.43915224 -43.473484
-0.441866696 -1.43915224 -42.9877472
-0.441866696 -1.43915224 -42.5020103
-0.441866696 -1.43915224 -42.0162735
-0.441866696 -1.43915224 -41.5305328
-0.441866696 -1.43915224 -41.044796
-0.441866696 -1.43915224 -40.5590591
-0.441866696 -1.43915224 -40.0733223
-0.441866696 -1.43915224 -39.5875854
-0.441866696 -1.43915224 -39.1018486
-0.441866696 -1.43915224 -38.6161118
-0.441866696 -1.43915224 -38.1303749
-0.441866696 -1.43915224 -37.6446381
-0.441866696 -1.43915224 -37.1589012
-0.441866696 -1.43915224 -36.6731644
-0.441866696 -1.43915224 -36.1874275
-0.441866696 -1.43915224 -35.7016907
-0.441866696 -1.43915224 -35.2159538
-0.441866696 -1.43915224 -34.7302132
-0.441866696 -1.43915224 -34.2444763
-0.441866696 -1.43915224 -33.7587395
-0.441866696 -1.43915224 -33.2730026
-0.441866696 -1.43915224 -32.7872658
-0.441866696 -1.43915224 -32.3015289
-0.441866696 -1.43915224 -31.8157921
-0.441866696 -1.43915224 -31.3300552
-0.441866696 -1.43915224 -30.8443184
-0.441866696 -1.43915224 -30.3585815
-0.441866696 -1.43915224 -29.8728428
-0.441866696 -1.43915224 -29.3871059
-0.441866696 -1.43915224 -28.9013691
-0.441866696 -1.43915224 -28.4156322
-0.441866696 -1.43915224 -27.9298954
-0.441866696 -1.43915224 -27.4441586
-0.441866696 -1.43915224 -26.9584198
-0.441866696 -1.43915224 -26.472683
-0.441866696 -1.43915224 -25.9869461
-0.441866696 -1.43915224 -25.5012093
-0.441866696 -1.43915224 -25.0154724
-0.441866696 -1.43915224 -24.5297356
-0.441866696 -1.43915224 -24.0439987
-0.441866696 -1.43915224 -23.55826
-0.441866696 -1.43915224 -23.0725231
-0.441866696 -1.43915224 -22.5867863
-0.441866696 -1.43915224 -22.1010494
-0.441866696 -1.43915224 -21.6153126
-0.441866696 -1.43915224 -21.1295757
-0.441866696 -1.43915224 -20.6438389
-0.441866696 -1.43915224 -20.1581001
-0.441866696 -1.43915224 -19.6723633
-0.441866696 -1.43915224 -19.1866264
-0.441866696 -1.43915224 -18.7008896
-0.441866696 -1.43915224 -18.2151527
-0.441866696 -1.43915224 -17.7294159
-0.441866696 -1.43915224 -17.2436771
-0.441866696 -1.43915224 -16.7579403
-0.441866696 -1.43915224 -16.2722034
-0.441866696 -1.43915224 -15.7864666
-0.441866696 -1.43915224 -15.3007298
-0.441866696 -1.43915224 -14.814992
-0.441866696 -1.43915224 -14.3292551
-0.441866696 -1.43915224 -13.8435183
-0.441866696 -1.43915224 -13.3577814
-0.441866696 -1.43915224 -12.8720436
-0.441866696 -1.43915224 -12.3863068
-0.441866696 -1.43915224 -11.9005699
-0.441866696 -1.43915224 -11.4148321
-0.441866696 -1.43915224 -10.9290953
-0.441866696 -1.43915224 -10.4433584
-0.441866696 -1.43915224 -9.95762062
-0.441866696 -1.43915224 -9.47188377
-0.441866696 -1.43915224 -8.98614693
-0.441866696 -1.43915224 -8.50041008
-0.441866696 -1.43915224 -8.01467228
-0.441866696 -1.43915224 -7.52893543
-0.441866696 -1.43915224 -7.04319811
-0.441866696 -1.43915224 -6.55746126
-0.441866696 -1.43915224 -6.07172394
-0.441866696 -1.43915224 -5.58598709
-0.441866696 -1.43915224 -5.10024977
-0.441866696 -1.43915224 -4.61451244
-0.441866696 -1.43915224 -4.1287756
-0.441866696 -1.43915224 -3.64303827
-0.441866696 -1.43915224 -3.15730119
-0.441866696 -1.43915224 -2.6715641
-0.441866696 -1.43915224 -2.18582702
-0.441866696 -1.43915224 -1.70008981
-0.441866696 -1.43915224 -1.21435273
-0.441866696 -1.43915224 -0.728615582
-0.441866696 -1.43915224 -0.242878437
-0.441866696 -1.43915224 0.242858693
-0.441866696 -1.43915224 0.728595853
-0.441866696 -1.43915224 1.21433294
-0.441866696 -1.43915224 1.70007014
-0.441866696 -1.43915224 2.18580723
-0.441866696 -1.43915224 2.67154431
-0.441866696 -1.43915224 3.1572814
-0.441866696 -1.43915224 3.64301872
-0.441866696 -1.43915224 4.12875557
-0.441866696 -1.43915224 4.61449289
-0.441866696 -1.43915224 5.10023022
-0.441866696 -1.43915224 5.58596706
-0.441866696 -1.43915224 6.07170439
-0.441866696 -1.43915224 6.55744123
-0.441866696 -1.43915224 7.04317856
-0.441866696 -1.43915224 7.52891588
-0.441866696 -1.43915224 8.01465321
-0.441866696 -1.43915224 8.50039005
-0.441866696 -1.43915224 8.9861269
-0.441866696 -1.43915224 9.47186375
-0.441866696 -1.43915224 9.95760155
-0.441866696 -1.43915224 10.4433384
-0.441866696 -1.43915224 10.9290752
-0.441866696 -1.43915224 11.414813
-0.441866696 -1.43915224 11.9005499
-0.441866696 -1.43915224 12.3862867
-0.441866696 -1.43915224 12.8720245
-0.441866696 -1.43915224 13.3577614
-0.441866696 -1.43915224 13.8434982
-0.441866696 -1.43915224 14.3292351
-0.441866696 -1.43915224 14.8149729
-0.441866696 -1.43915224 15.3007097
-0.441866696 -1.43915224 15.7864466
-0.441866696 -1.43915224 16.2721844
-0.441866696 -1.43915224 16.7579212
-0.441866696 -1.43915224 17.2436581
-0.441866696 -1.43915224 17.7293949
-0.441866696 -1.43915224 18.2151318
-0.441866696 -1.43915224 18.7008705
-0.441866696 -1.43915224 19.1866074
-0.441866696 -1.43915224 19.6723442
-0.441866696 -1.43915224 20.1580811
-0.441866696 -1.43915224 20.6438179
-0.441866696 -1.43915224 21.1295547
-0.441866696 -1.43915224 21.6152916
-0.441866696 -1.43915224 22.1010303
-0.441866696 -1.43915224 22.5867672
-0.441866696 -1.43915224 23.072504
-0.441866696 -1.43915224 23.5582409
-0.441866696 -1.43915224 24.0439777
-0.441866696 -1.43915224 24.5297146
-0.441866696 -1.43915224 25.0154533
-0.441866696 -1.43915224 25.5011902
-0.441866696 -1.43915224 25.986927
-0.441866696 -1.43915224 26.4726639
-0.441866696 -1.43915224 26.9584007
-0.441866696 -1.43915224 27.4441376
-0.441866696 -1.43915224 27.9298744
-0.441866696 -1.43915224 28.4156132
-0.441866696 -1.43915224 28.90135
-0.441866696 -1.43915224 29.3870869
-0.441866696 -1.43915224 29.8728237
-0.441866696 -1.43915224 30.3585606
-0.441866696 -1.43915224 30.8442974
-0.441866696 -1.43915224 31.3300343
-0.441866696 -1.43915224 31.815773
-0.441866696 -1.43915224 32.3015099
-0.441866696 -1.43915224 32.7872467
-0.441866696 -1.43915224 33.2729836
-0.441866696 -1.43915224 33.7587204
-0.441866696 -1.43915224 34.2444572
-0.441866696 -1.43915224 34.7301941
-0.441866696 -1.43915224 35.2159309
-0.441866696 -1.43915224 35.7016678
-0.441866696 -1.43915224 36.1874046
-0.441866696 -1.43915224 36.6731453
-0.441866696 -1.43915224 37.1588821
-0.441866696 -1.43915224 37.644619
-0.441866696 -1.43915224 38.1303558
-0.441866696 -1.43915224 38.6160927
-0.441866696 -1.43915224 39.1018295
-0.441866696 -1.43915224 39.5875664
-0.441866696 -1.43915224 40.0733032
-0.441866696 -1.43915224 40.5590401
-0.441866696 -1.43915224 41.0447769
-0.441866696 -1.43915224 41.5305138
-0.441866696 -1.43915224 42.0162506
-0.441866696 -1.43915224 42.5019875
-0.441866696 -1.43915224 42.9877281
-0.441866696 -1.43915224 43.473465
-0.441866696 -1.43915224 43.9592018
-0.441866696 -1.43915224 44.4449387
-0.441866696 -1.43915224 44.9306755
-0.441866696 -1.43915224 45.4164124
-0.441866696 -1.43915224 45.9021492
-0.441866696 -1.43915224 46.387886
-0.441866696 -1.43915224 46.8736229
-0.441866696 -1.43915224 47.3593597
-0.441866696 -1.43915224 47.8450966
-0.441866696 -1.43915224 48.3308334
-0.441866696 -1.43915224 48.8165703
-0.441866696 -1.43915224 49.3023109
-0.441866696 -1.43915224 49.7880478
-0.441866696 -1.43915224 50.2737846
-0.441866696 -1.43915224 50.7595215
-0.441866696 -1.43915224 51.2452583
-0.441866696 -1.43915224 51.7309952
-0.441866696 -1.43915224 52.216732
-0.441866696 -1.43915224 52.7024689
-0.441866696 -1.43915224 53.1882057
-0.441866696 -1.43915224 53.6739426
-0.441866696 -1.43915224 54.1596794
-0.441866696 -1.43915224 54.6454163
-0.441866696 -1.43915224 55.1311531
-0.441866696 -1.43915224 55.61689
-0.441866696 -1.43915224 56.1026306
-0.441866696 -1.43915224 56.5883675
-0.441866696 -1.43915224 57.0741043
-0.441866696 -1.43915224 57.5598412
-0.441866696 -1.43915224 58.045578
-0.441866696 -1.43915224 58.5313148
-0.441866696 -1.43915224 59.0170517
-0.441866696 -1.43915224 59.5027885
-0.441866696 -1.43915224 59.9885254
-0.441866696 -1.43915224 60.4742622
-0.866130769 -1.26341629 60.9599991
-1.04186666 -0.839152217 60.9599991
-0.866130769 -0.414888173 60.9599991
-0.441866696 -0.239152238 60.4742622
-0.441866696 -0.239152238 59.9885254
-0.441866696 -0.239152238 59.5027885
-0.441866696 -0.239152238 59.0170517
-0.441866696 -0.239152238 58.5313148
-0.441866696 -0.239152238 58.045578
-0.441866696 -0.239152238 57.5598412
-0.441866696 -0.239152238 57.0741043
[...]
CELL_DATA 9457
SCALARS TALLY_TAG double 1
LOOKUP_TABLE default
0.0003450038919 
0.000489331421 
0.0004936516825 
0.0004057983482 
0.0001910999584 
0.0003497635808 
0.0003668622934 
0.0004988000455 
0.0003579908384 
0.0003515695552 
0.0005446040592 
0.0005697534542 
0.0002492662705 
0.0004085244657 
0.0005384485013 
0.0005753722699 
0.0003509461905 
0.0003002541487 
0.000374939979 
0.000328664305 
0.0003919063788 
0.0001971677972 
0.0002141456913 
0.0002733398816 
0.0002707919696 
0.0003029767017 
0.0003574125158 
0.0005296271504 
0.0004311274481 
0.0003443146715 
0.0001803578397 
0.0002370902294 
0.0003489233453 
0.0003694769755 
0.0005530572514 
0.0002217193164 
0.0002922997322 
0.0002601324698 
0.0006112517781 
0.0005065103046 
0.0004439327836 
0.0005149801711 
0.0005378168788 
0.0003468083869 
0.0007315302761 
0.0005570986649 
0.0005743829848 
0.0006235817858 
0.0005785740641 
0.0002280433748 
0.0004471022083 
0.0003055723231 
0.000516112441 
0.0003639988806 
0.0008543300472 
0.0001956711165 
0.0002292930925 
0.0002130194265 
0.0005608598072 
0.0005237108232 
0.0003955041853 
0.0003799685113 
0.0002399534717 
0.0005214021467 
0.0002915298158 
0.0001517725321 
0.0003997139083 
0.0004284588715 
0.000650664793 
0.0002778423366 
0.0003538727088 
0.0005703780839 
0.0003725795279 
0.0003988286568 
0.0005063418223 
0.0004062706822 
0.000377020318 
0.0006114337012 
0.0004328073093 
0.0003086294748 
0.0004589214158 
0.0002739894305 
0.0007300327157 
0.0002959549496 
0.0004483584903 
0.0003141289201 
0.0002428166395 
0.000440600917 
0.0003078084483 
0.000314182361 
0.0003348369699 
0.0005208266481 
0.0003310277729 
0.0005301243879 
0.0002824825098 
0.0006553170947 
0.0005959295849 
0.0003624577945 
0.0002202076163 
0.0004229570482 
0.0005056106451 
0.0001744527787 
0.0002125411211 
0.0002225702812 
0.0002347253086 
0.0003597949754 
0.0004529468029 
0.000541318466 
7.155867824e-05 
0.0003662168358 
0.0001853778712 
0.0003851868584 
0.0003572190306 
0.0003146856714 
0.0003394574481 
0.000253777547 
0.0007257226558 
0.0002722241775 
0.0002719526965 
0.0001798643146 
0.0004215353792 
0.0003044402693 
0.0001218440486 
0.0001725225679 
0.0004338792399 
0.000344761072 
0.0004691969923 
0.0004422677662 
0.0004667742683 
0.000328129355 
0.0003054585302 
0.0001881706185 
0.0002863764722 
0.0006030561893 
0.0006802526297 
0.000200890673 
0.0001074398349 
0.0003816469018 
0.0006246105079 
0.0003021085732 
0.0004444986538 
0.0004187855753 
0.0003726085035 
0.0005127779044 
0.0006040422024 
0.0006736432287 
0.0004849415227 
0.0006864203738 
0.0003609251288 
0.000692027883 
0.0004012144959 
0.0005494347689 
0.0003973098436 
0.0004241460612 
0.0003279761133 
0.0002924579925 
0.000156203722 
0.0001678774292 
0.0004153702988 
0.0003932684589 
0.0003923212183 
0.0005791075246 
0.0003837492471 
0.0002184263777 
0.0002138829137 
0.0004122263493 
0.0004138620201 
0.0002160961191 
0.0003162831401 
0.0003167731223 
0.0003762035061 
0.0005606276426 
0.0005246522894 
0.0007022057543 
0.0003035378052 
0.0002572481926 
0.0003218444329 
0.0004525458703 
0.0003934838005 
0.0002642394782 
0.0003632683534 
0.0002403848563 
0.0003752427098 
0.0002458310594 
0.0006352230173 
0.0003622489477 
0.0003972327694 
0.0004305371286 
0.0003665064268 
0.0003367227043 
0.0002767972454 
0.0003817567513 
0.0004046788474 
0.0002297490141 
0.0002787245714 
0.0002429282181 
0.0003186692967 
0.0002421788208 
0.0001693151978 
0.000341579901 
0.0003080474085 
0.00031715802 
0.000455463767 
0.0004551461287 
0.000495601972 
0.0003335232301 
0.0005069888694 
0.0004289810488 
0.0002176037855 
0.0002761271738 
0.0002267989503 
0.0001937884585 
0.0002895028201 
0.0002974225888 
0.0001997039877 
0.0005219417281 
0.0008106072661 
0.0005955170764 
0.000538097222 
0.0004167555303 
0.0005185068547 
0.0007501435353 
0.0003639025071 
0.0004671159587 
0.0002711761597 
0.0009040710514 
0.0004683648885 
0.0005062611909 
0.0003045070475 
0.0002221685984 
0.0002169647694 
0.000749673485 
0.0003202950958 
0.000431360125 
0.0006900557165 
0.0004700902355 
0.0004691030007 
0.000885118017 
0.0003712581911 
0.0002830221917 
0.0004987656315 
0.0006687398797 
0.0005869756983 
0.0006592782635 
0.0005983505034 
0.0004942054971 
0.0004109284296 
0.0003466321761 
0.000547809682 
0.0004080098042 
0.0006150252196 
0.0003648466173 
0.0002823964375 
0.0001354287658 
0.0002423514011 
0.0005644431382 
0.0003449974559 
0.0005553361531 
0.0004960923885 
0.0006446987526 
0.000392102666 
0.0005023294264 
0.0004803651091 
0.000480207378 
0.0003575616351 
0.0003254565091 
0.0003943732899 
0.0002574846532 
0.0002728840814 
0.0002484581733 
0.0005563560677 
0.0003996483262 
0.0004759632746 
0.000443255215 
0.0002476716015 
0.0003633126065 
0.0004474466437 
0.0001495155335 
0.0002403306914 
0.0003442970763 
0.0003530099924 
0.0002151457348 
0.0003589229693 
0.0002243196748 
0.0004395623124 
0.0004934882322 
0.0004250602541 
0.0003934641163 
0.0005254035996 
0.0002934928926 
0.0002707937252 
0.0008597347623 
0.0002980945934 
0.0002014053819 
0.0003394488138 
0.0001827150089 
0.0002009638728 
0.0001849701241 
0.0004250217769 
0.0003667412464 
0.0003329116566 
0.0005396192357 
0.0003994130804 
0.00055887504 
0.0003464395895 
0.0003972761267 
0.0004895447448 
0.0003216445911 
0.0004030433456 
0.0004265807927 
0.0006885030425 
0.0007129592155 
0.00034403849 
0.0006293025529 
0.0004398376579 
0.0006244421901 
0.0002102939121 
0.0002541464246 
0.0003144206803 
0.0003861850636 
0.00044744789 
0.0004883949679 
0.0006882955044 
0.0004855790733 
0.0007873300438 
0.0007370680171 
0.0007461785557 
0.0007638581696 
0.000450830512 
0.000435168176 
0.0005454923181 
0.0009645772027 
0.0004788838227 
0.0006044980271 
0.0003526448442 
0.00046740227 
0.0003188629654 
0.0004772095095 
0.000687500825 
0.0005235907343 
0.0002385138126 
0.000377901987 
0.0006479679794 
0.0006834648849 
0.0004128890838 
0.0005196270628 
0.0003994843707 
0.0006627491806 
0.000343284732 
0.0003330247044 
0.0004576162511 
0.000270191556 
0.0004068422004 
0.0004165259691 
0.0002343446622 
0.0002468603376 
0.0002224636918 
0.0002553564683 
0.0004655732136 
0.0002404848916 
0.0005328633313 
0.0006019405533 
0.0003088472727 
0.0003996362325 
0.0004894235892 
0.0002623058834 
0.0003549664035 
0.0004105458073 
0.0005264392737 
0.0005650983753 
0.0003941858717 
0.0004051485073 
0.0003100411404 
0.0003523451706 
0.0002853006354 
0.0001693488247 
0.0003032341043 
0.0002403549463 
0.0002684267496 
0.0002648100766 
0.0004324190788 
0.0003234094331 
0.0003572769982 
0.0007140376132 
0.000571597386 
0.0005131840162 
0.0004990638079 
0.0002564104691 
0.0006646291936 
0.0005371376416 
0.0001926472698 
0.0002135881644 
0.0005196867215 
0.0001762406088 
0.0004196096993 
0.0005282197531 
0.0002234249774 
0.0002824897545 
0.0001339597683 
0.0003151511041 
0.0005683720097 
0.0004551326161 
0.0006207649129 
0.0002638448153 
0.0001995862518 
0.0004719617488 
0.0007324444614 
0.0004953678658 
0.0004921890813 
0.0003079538782 
0.0004415640662 
0.0003423076057 
0.000301438086 
0.0005817859619 
0.0004845666493 
0.0003911785025 
0.0005573489708 
0.0004560776245 
0.0003669941604 
0.0006361259358 
0.0004266730265 
0.000470912039 
0.000256637278 
0.0002955842494 
0.0004089086037 
0.0004120188201 
0.0005085538237 
0.0003825177984 
0.0003377136039 
0.000202257779 
0.0002514366114 
0.0004239531279 
0.0002583276288 
0.0003044589826 
0.0002008035099 
0.0002254880417 
0.0004520254361 
0.0001965421592 
0.0002104409238 
0.0004603952554 
0.0005673208123 
0.0003009820399 
0.0009206897172 
0.0005624248305 
0.0003638961566 
0.0002480312181 
0.0005003763757 
0.0006456249534 
0.000537664079 
0.0003455542873 
0.0003566846736 
0.0005249382457 
0.0002696783305 
8.597101664e-05 
0.0002067424438 
0.000491857058 
0.0002714071154 
0.0003193471469 
0.0004125523703 
0.000381506278 
0.0005453127647 
0.0003762178321 
0.0002137803073 
0.0002393814201 
0.0002182419134 
0.000325686681 
0.0002003121462 
0.0004370197718 
0.0002125774143 
0.0006148279986 
0.0003488193213 
0.0006248556068 
0.001005366842 
0.0006309326877 
0.0005173322011 
0.0003937318353 
0.0004713453097 
0.0003468717242 
0.0008110409174 
0.0004807712776 
0.000209566725 
0.000210861822 
0.0005758221311 
0.0004355063889 
0.0003659189917 
0.0003665950924 
0.0001301604271 
0.0008981515385 
0.0005526954712 
0.0003233567457 
0.000341846771 
0.0006452737046 
0.0002666534757 
0.0003328063157 
0.0004042266909 
0.0002515260305 
0.0003063085681 
0.0006067467528 
0.0004205445944 
0.0004425790256 
0.0005344038556 
0.0004020994053 
0.0002849640328 
0.0003037231053 
0.0003747113156 
0.0003672333018 
0.000264227049 
0.0006086134596 
0.0005620399245 
0.0005112976951 
0.0005130809417 
0.000516678678 
0.0003652426102 
0.0004232780996 
0.0003240425189 
0.0002846459326 
0.0005165954939 
0.0003471297879 
0.0003418388108 
0.0003888484842 
0.0004036947937 
0.0003410513004 
0.0003865418916 
0.000406456832 
0.0003301016636 
0.0002659506698 
0.0002227730738 
0.0007943005662 
0.000708619289 
0.0004403603927 
0.0004090454124 
0.0003683784895 
0.0006594565037 
0.0004719636873 
0.0003611056873 
0.0004736295238 
0.0002410515965 
0.00046558634 
0.0002454235812 
0.0004482285738 
0.0005654360122 
0.0004160678697 
0.0003396312765 
0.0002898957729 
0.0004953559582 
0.0003692898749 
0.0003226122326 
0.0003442019785 
0.0006292928469 
0.0004041997478 
0.0006399873782 
0.0005445166523 
0.0001827349106 
0.0002563499349 
0.0002645324314 
0.0004226835721 
0.0001872617144 
0.0005487964282 
0.0004247519787 
0.0004149734183 
0.0002562692297 
0.0003871577581 
0.0003374171342 
0.0004275708144 
0.0006208894952 
0.0005902174557 
0.0005119362698 
0.0003037142885 
0.000307501429 
0.0003125255631 
0.000264049469 
0.0001816054762 
0.0002927192446 
0.0006910617369 
0.0006118358279 
0.0008616485101 
0.0005528174213 
0.0003751630556 
0.0003381935034 
0.0004731643963 
0.0004997537436 
0.0003669122271 
0.0003608948047 
0.0005271076813 
0.0003657632108 
0.0005170691753 
0.0003927712634 
0.0004909566361 
0.0004837444359 
0.0008219562544 
0.0003779478163 
0.0003779714726 
0.0002380570621 
0.0002335028805 
0.0002436334208 
0.0004719234131 
0.0003342853931 
0.0005932277475 
0.0005448559559 
0.0003480783479 
0.0003563743948 
0.0002275062278 
0.0002620159492 
0.0006384675658 
0.0004641335853 
0.000399050504 
0.0004040092759 
0.0005623008173 
0.0003477057139 
0.0005247740689 
0.0004282480294 
0.000517434194 
0.0003541039522 
0.0001211652429 
0.0004761909512 
0.0002744075052 
0.0003224736945 
0.0003680992437 
0.0002790783945 
0.0001684125534 
0.0005929660622 
0.001067546101 
0.0006649139871 
0.0003277981455 
0.0002961121754 
0.0002995574193 
0.0002177007822 
0.0002284320839 
0.0007007774962 
0.0005454007312 
0.0005905711215 
0.000445187852 
0.0004228884225 
0.0004681644063 
0.0004425756407 
0.0005049711277 
0.0005416477702 
0.0004334915507 
0.0002038194111 
0.000313729029 
0.0006150244593 
0.0003062456651 
0.0005051684327 
0.0002948958768 
0.0003486418193 
0.0003283969977 
0.0006567022754 
0.0007408207728 
0.0005877683555 
0.0002656838761 
0.0004695136636 
0.0003480567243 
0.0005701447112 
0.0006534691685 
0.0002540316217 
0.0002162808348 
0.000574541081 
0.0002983375444 
0.0004691901553 
0.0002304921987 
0.0002702911624 
0.0005234935334 
0.0002873109657 
0.0003847157835 
0.0005108387504 
0.0002633810308 
0.0002963027639 
0.0006094904997 
0.0004039149957 
0.0002954074527 
0.0005079950828 
0.0004223088642 
0.0006916161804 
0.0004389562276 
0.0002507001735 
0.0002902266758 
0.0003206469036 
0.0007082681269 
0.0001937039585 
0.0008510728511 
0.0007087913613 
0.0004239145695 
0.0002015116049 
0.0005356510303 
0.0006879929623 
0.000461589086 
0.0008184242939 
0.0003810887272 
0.0003294286319 
0.0005194297356 
0.0003041585074 
0.0003620175338 
0.0003588970349 
0.000625877298 
0.0003576724018 
0.0003439501663 
0.0004597907654 
0.0003910229868 
0.0003161584884 
0.0003007950444 
0.0003989857539 
0.0002414795113 
0.0003463136502 
0.0004163487723 
0.0001619903189 
0.0004363780078 
0.0002054079041 
0.0002463848476 
0.0003957660049 
0.0003031579902 
0.00043669125 
0.0002318262876 
0.0002389831038 
0.0003532471222 
0.0001272744035 
0.0003372169557 
0.0001864483066 
0.000180572913 
0.0004016094513 
0.0002429986079 
0.0002160504636 
0.0003582306188 
0.0001768373459 
0.0002937198732 
0.0004190497181 
0.0002433188249 
0.0002147606461 
0.0002342271035 
0.0003890206001 
0.0005609342487 
9.172581384e-05 
0.0003664790441 
0.0007186289842 
0.0006512934408 
0.0004780726283 
0.0007507092745 
0.000746005299 
0.0004521322581 
0.0002960220205 
0.0002702007094 
0.0004036580749 
0.0001489103217 
0.000508794442 
0.0006123895619 
0.0006171964456 
0.0006133491108 
0.0007027753197 
0.0004643176193 
0.0002306985174 
0.0004386799733 
0.0005624278377 
0.0001908841143 
0.000261658819 
0.0001929705146 
0.0002355942201 
0.0003440946484 
0.0007709613104 
0.0002223638573 
0.0006438441656 
0.0001657005171 
0.000630450925 
0.0001871684455 
0.0004733023179 
0.0003749746195 
0.0003053389114 
0.0001372533022 
9.811172696e-05 
0.0005672974595 
0.0006361378417 
0.0007147336939 
0.0006374596294 
0.0005961831713 
0.0003504494184 
0.0002353955115 
0.0004254061658 
0.0002479749167 
0.0003139512218 
0.0002705333997 
0.0004363036743 
0.0003417277366 
0.0003407040143 
0.0002395206889 
0.0002566576203 
0.0003409607068 
0.0003059172993 
0.0003638505891 
0.0005014673192 
0.0004001520735 
0.0001835498403 
0.000173704813 
0.0003123463337 
0.0003731364956 
0.0002694161825 
0.0002053562617 
0.0006403282477 
0.0006551274296 
0.0004058706837 
0.000217472294 
0.0006897100912 
0.0003086303101 
0.0006787521354 
0.0005389606825 
0.0005494521078 
0.0003100415695 
0.0008118133374 
0.0004864547483 
0.0001987385767 
0.0003810946419 
0.0005572591623 
0.000561035923 
0.0002502581001 
0.0003505527101 
0.000352359324 
0.0002560392005 
0.0001851705251 
0.0003834349511 
0.0003478466642 
0.0004763117119 
0.0004425918235 
0.0002308126841 
0.0008001154059 
0.0004421873073 
0.0003256226037 
0.0007645160183 
0.0003123367841 
0.0004034480601 
0.0004962529637 
0.0003698330009 
0.0005822370862 
0.0005629866512 
0.0003765571739 
0.0004197278868 
0.0002846580503 
0.000307961515 
0.0005376410512 
0.0003457944544 
0.0003859755852 
0.0004285531406 
0.0004491879925 
0.0003113307287 
0.0006794465525 
0.0007667685943 
0.0006810371829 
0.000348621926 
0.0002771283073 
0.0008621091543 
0.0006571575605 
0.0004627414501 
0.0004398354043 
0.0003755171044 
0.0004553548828 
0.0002629839474 
0.0006924443264 
0.000402227742 
0.0005964024916 
0.0002552708918 
0.0006269022096 
0.0004569885412 
0.0002895995623 
0.0004100813485 
0.000393521915 
0.0003836202219 
0.0004072889577 
0.0004287801094 
0.0003192080943 
0.0008364019365 
0.0003854377256 
0.0003155498002 
0.0002287962392 
0.0002546995199 
0.0003142277486 
0.0006122463487 
0.0002360712506 
8.197729236e-05 
0.0001504505642 
0.0006052251671 
0.0001859573995 
0.0002045299481 
0.0005791010633 
0.0003710827136 
0.0003658038408 
0.000134044736 
8.727048765e-05 
0.0004835761268 
0.0001700847522 
0.0002655349635 
0.0003539555545 
0.0002630084349 
0.0003582800556 
0.0004017426468 
0.000257908197 
0.0001723857224 
0.0002991401101 
0.0003502288026 
0.0001721760565 
0.0003410773144 
0.0002836347283 
0.0004029528617 
0.0002997606557 
0.0003218806984 
0.0003860273578 
0.0002128069948 
0.0003442477142 
0.0004620519111 
0.0002767639471 
0.0004046963142 
0.0004168227858 
0.0004068411339 
0.0003750955234 
0.0004068534805 
0.0004273100213 
0.0004466460261 
0.0004149204422 
0.0002999572757 
0.0002599461763 
0.0005773783237 
0.000270108659 
0.0003808240801 
0.0003822965831 
0.0005725822058 
0.0008504411824 
0.0004193838593 
0.0008330682094 
0.0003599810076 
0.0006619506038 
0.0002111873426 
0.0002917267369 
0.0001291973229 
0.0005199291673 
0.0005797903516 
0.001099554637 
0.0004209023686 
0.0004591007273 
0.0007524161068 
0.000538927866 
0.0003677704504 
0.0003032300857 
0.000566578592 
0.0006008545197 
0.0005152826305 
0.0002501169095 
0.0004104888541 
0.0007252709394 
0.0003418332346 
0.0003946971316 
0.0004478473027 
0.00053610198 
0.0002933510876 
0.0005466236544 
0.0004781229832 
0.0001777470279 
0.000315234812 
0.0004591010913 
0.0005285058197 
0.0009448252662 
0.0006582166315 
0.0006808706841 
0.0002649276197 
0.0004230152417 
0.000371937649 
0.0006637853453 
0.0004823317631 
0.0003606935051 
0.0002797154076 
0.0002625476297 
0.0005909306005 
0.0004517743384 
0.000659800197 
0.000310134711 
0.0004400507916 
0.0003751323454 
0.0004271414747 
0.0002381219808 
0.0002844177951 
0.0006168338554 
0.0003668489455 
0.0003824944257 
0.0006469377935 
0.0002658333245 
0.0003939954236 
0.0002833850424 
0.0003573666658 
0.0005458212275 
0.0001518788945 
0.0005715968868 
0.0001615809106 
0.0003495221439 
0.0004556190424 
0.0007124421368 
0.0003744981586 
0.0005323069591 
0.0004173356775 
0.0003143265807 
0.000285342903 
0.0001523117207 
0.0001555712669 
0.0004116944336 
0.0005469807146 
0.0003195724296 
0.0002529312372 
0.0005602208937 
0.0005719193713 
0.0002947677439 
0.0002870292961 
0.0003536125763 
0.0003671436819 
0.0005765687943 
0.0003503947722 
0.0003490930917 
0.0004568025507 
0.0003249825979 
0.000680380864 
0.0005736715822 
0.0004950669883 
0.0005107853994 
0.0004059861324 
0.0004512527112 
0.0005167717623 
0.0005697165929 
0.0008062349071 
0.0005417475243 
0.0005572329776 
0.0001361156394 
0.0003123814429 
0.0001724928088 
0.0002550184274 
0.0001874867583 
0.0003363025453 
0.0005425059497 
0.0004999074776 
0.0007263445606 
0.0004261014469 
0.0005692664323 
0.0004893679034 
0.0004883113324 
0.0001236424635 
0.0001849068887 
0.0003530823531 
0.0002393210943 
0.0001412866324 
0.0007706520235 
0.0005519200443 
0.0004109939168 
0.0002393686961 
0.0004446629403 
0.0004455886839 
0.0004702292309 
0.0001124650744 
0.0002296267935 
0.0004263544142 
0.0002802401471 
0.0001968729271 
0.000519106057 
0.0005298150326 
0.0003826900998 
0.0004863539199 
0.0004723232332 
0.0006775928853 
0.0006442422773 
0.0006164640283 
0.0005100270024 
0.0005181329266 
0.0005696444808 
0.0005311219235 
0.0003612588381 
0.0004174755131 
0.0003311469078 
0.0004829803074 
0.0003444923098 
0.0003949094798 
0.0002980304682 
0.0005190816016 
0.0003124400452 
0.0003830253589 
0.0005857499354 
0.0005975075862 
0.0006294952296 
0.0004061087173 
0.0003982916686 
0.0003584767041 
0.0002321441677 
0.0003039658132 
0.0001554795688 
0.0002476935402 
0.0002613203045 
0.000518263048 
5.723262251e-05 
0.0001986237315 
0.000426582175 
0.0004435786633 
0.0001340266325 
0.000304551572 
0.0002738080404 
0.0002407688904 
0.0003178090272 
0.0002676388159 
0.0003986834318 
0.0006065404352 
0.0005012153814 
0.0003414975904 
0.0004972891451 
0.0006407756445 
0.0003923240075 
0.0006745293133 
0.000220262661 
0.0003265679786 
0.0003310667393 
0.0003640975081 
0.0002211113133 
0.0004304531805 
0.0003951704172 
0.0004394901829 
0.0003240271696 
0.0003706858076 
0.0003311861738 
0.0002599851891 
0.0004615644766 
0.0005734882613 
0.000875519007 
0.0005292245579 
0.0003404986277 
0.0005374287143 
0.0006096704737 
0.0006894926148 
0.0003643390826 
0.0006777762171 
0.000557888499 
0.0003900659637 
0.0003542480549 
0.0001914071468 
0.0001323726343 
0.0003132329312 
0.0005150682525 
0.0003402243856 
0.0005813518885 
0.000228846895 
0.0002585936336 
0.000415291402 
0.0003543171815 
0.0004732762482 
0.0003508665172 
0.0008999575679 
0.0002695368276 
0.0003572986687 
0.0004582282913 
0.0001666458927 
0.0004098293892 
0.0003939526712 
0.0002102458151 
0.0007332185608 
0.0004533310752 
0.0009749948665 
0.0005336584591 
0.0005214905452 
0.0006961276231 
0.000229016534 
0.0002953194765 
0.0006395817118 
0.0002576751441 
0.000154005289 
0.0002371313035 
0.0002667061328 
0.0005083798525 
0.0007053507274 
0.0009531405 
0.0005455183042 
0.000557624598 
0.0004207131802 
0.0007476478409 
0.0004158522228 
0.0004339868548 
0.0005786314775 
0.000651608871 
0.0007048932417 
0.0004535111025 
0.0001711483205 
0.0002706012594 
0.0006506378935 
0.0002682829186 