# vtk DataFile Version 3.0
MOAB 4.9.0
ASCII
DATASET UNSTRUCTURED_GRID
POINTS 2806 double
-0.840952218 -0.152589679 -60.9600182
-0.840952218 1.04741037 -60.9600182
-0.840952218 -0.152589679 60.9599991
-0.840952218 1.04741037 60.9599991
-1.26521635 0.0231462456 -60.9600182
-1.4409523 0.447410315 -60.9600182
-1.26521635 0.871674359 -60.9600182
-0.416688174 0.871674359 -60.9600182
-0.240952253 0.447410315 -60.9600182
-0.416688174 0.0231462456 -60.9600182
-0.840952218 -0.152589679 -60.4742813
-0.840952218 -0.152589679 -59.9885445
-0.840952218 -0.152589679 -59.5028076
-0.840952218 -0.152589679 -59.0170708
-0.840952218 -0.152589679 -58.5313339
-0.840952218 -0.152589679 -58.0455971
-0.840952218 -0.152589679 -57.5598602
-0.840952218 -0.152589679 -57.0741234
-0.840952218 -0.152589679 -56.5883865
-0.840952218 -0.152589679 -56.1026497
-0.840952218 -0.152589679 -55.6169128
-0.840952218 -0.152589679 -55.131176
-0.840952218 -0.152589679 -54.6454391
-0.840952218 -0.152589679 -54.1596985
-0.840952218 -0.152589679 -53.6739616
-0.840952218 -0.152589679 -53.1882248
-0.840952218 -0.152589679 -52.7024879
-0.840952218 -0.152589679 -52.2167511
-0.840952218 -0.152589679 -51.7310143
-0.840952218 -0.152589679 -51.2452774
-0.840952218 -0.152589679 -50.7595406
-0.840952218 -0.152589679 -50.2738037
-0.840952218 -0.152589679 -49.7880669
-0.840952218 -0.152589679 -49.30233
-0.840952218 -0.152589679 -48.8165932
-0.840952218 -0.152589679 -48.3308563
-0.840952218 -0.152589679 -47.8451157
-0.840952218 -0.152589679 -47.3593788
-0.840952218 -0.152589679 -46.873642
-0.840952218 -0.152589679 -46.3879051
-0.840952218 -0.152589679 -45.9021683
-0.840952218 -0.152589679 -45.4164314
-0.840952218 -0.152589679 -44.9306946
-0.840952218 -0.152589679 -44.4449577
-0.840952218 -0.152589679 -43.9592209
-0.840952218 -0.152589679 -43.473484
-0.840952218 -0.152589679 -42.9877472
-0.840952218 -0.152589679 -42.5020103
-0.840952218 -0.152589679 -42.0162735
-0.840952218 -0.152589679 -41.5305328
-0.840952218 -0.152589679 -41.044796
-0.840952218 -0.152589679 -40.5590591
-0.840952218 -0.152589679 -40.0733223
-0.840952218 -0.152589679 -39.5875854
-0.840952218 -0.152589679 -39.1018486
-0.840952218 -0.152589679 -38.6161118
-0.840952218 -0.152589679 -38.1303749
-0.840952218 -0.152589679 -37.6446381
-0.840952218 -0.152589679 -37.1589012
-0.840952218 -0.152589679 -36.6731644
-0.840952218 -0.152589679 -36.1874275
-0.840952218 -0.152589679 -35.7016907
-0.840952218 -0.152589679 -35.2159538
-0.840952218 -0.152589679 -34.7302132
-0.840952218 -0.152589679 -34.2444763
-0.840952218 -0.152589679 -33.7587395
-0.840952218 -0.152589679 -33.2730026
-0.840952218 -0.152589679 -32.7872658
-0.840952218 -0.152589679 -32.3015289
-0.840952218 -0.152589679 -31.8157921
-0.840952218 -0.152589679 -31.3300552
-0.840952218 -0.152589679 -30.8443184
-0.840952218 -0.152589679 -30.3585815
-0.840952218 -0.152589679 -29.8728428
-0.840952218 -0.152589679 -29.3871059
-0.840952218 -0.152589679 -28.9013691
-0.840952218 -0.152589679 -28.4156322
-0.840952218 -0.152589679 -27.9298954
-0.840952218 -0.152589679 -27.4441586
-0.840952218 -0.152589679 -26.9584198
-0.840952218 -0.152589679 -26.472683
-0.840952218 -0.152589679 -25.9869461
-0.840952218 -0.152589679 -25.5012093
-0.840952218 -0.152589679 -25.0154724
-0.840952218 -0.152589679 -24.5297356
-0.840952218 -0.152589679 -24.0439987
-0.840952218 -0.152589679 -23.55826
-0.840952218 -0.152589679 -23.0725231
-0.840952218 -0.152589679 -22.5867863
-0.840952218 -0.152589679 -22.1010494
-0.840952218 -0.152589679 -21.6153126
-0.840952218 -0.152589679 -21.1295757
-0.840952218 -0.152589679 -20.6438389
-0.840952218 -0.152589679 -20.1581001
-0.840952218 -0.152589679 -19.6723633
-0.840952218 -0.152589679 -19.1866264
-0.840952218 -0.152589679 -18.7008896
-0.840952218 -0.152589679 -18.2151527
-0.840952218 -0.152589679 -17.7294159
-0.840952218 -0.152589679 -17.2436771
-0.840952218 -0.152589679 -16.7579403
-0.840952218 -0.152589679 -16.2722034
-0.840952218 -0.152589679 -15.7864666
-0.840952218 -0.152589679 -15.3007298
-0.840952218 -0.152589679 -14.814992
-0.840952218 -0.152589679 -14.3292551
-0.840952218 -0.152589679 -13.8435183
-0.840952218 -0.152589679 -13.3577814
-0.840952218 -0.152589679 -12.8720436
-0.840952218 -0.152589679 -12.3863068
-0.840952218 -0.152589679 -11.9005699
-0.840952218 -0.152589679 -11.4148321
-0.840952218 -0.152589679 -10.9290953
-0.840952218 -0.152589679 -10.4433584
-0.840952218 -0.152589679 -9.95762062
-0.840952218 -0.152589679 -9.47188377
-0.840952218 -0.152589679 -8.98614693
-0.840952218 -0.152589679 -8.50041008
-0.840952218 -0.152589679 -8.01467228
-0.840952218 -0.152589679 -7.52893543
-0.840952218 -0.152589679 -7.04319811
-0.840952218 -0.152589679 -6.55746126
-0.840952218 -0.152589679 -6.07172394
-0.840952218 -0.152589679 -5.58598709
-0.840952218 -0.152589679 -5.10024977
-0.840952218 -0.152589679 -4.61451244
-0.840952218 -0.152589679 -4.1287756
-0.840952218 -0.152589679 -3.64303827
-0.840952218 -0.152589679 -3.15730119
-0.840952218 -0.152589679 -2.6715641
-0.840952218 -0.152589679 -2.18582702
-0.840952218 -0.152589679 -1.70008981
-0.840952218 -0.152589679 -1.21435273
-0.840952218 -0.152589679 -0.728615582
-0.840952218 -0.152589679 -0.242878437
-0.840952218 -0.152589679 0.242858693
-0.840952218 -0.152589679 0.728595853
-0.840952218 -0.152589679 1.21433294
-0.840952218 -0.152589679 1.70007014
-0.840952218 -0.152589679 2.18580723
-0.840952218 -0.152589679 2.67154431
-0.840952218 -0.152589679 3.1572814
-0.840952218 -0.152589679 3.64301872
-0.840952218 -0.152589679 4.12875557
-0.840952218 -0.152589679 4.61449289
-0.840952218 -0.152589679 5.10023022
-0.840952218 -0.152589679 5.58596706
-0.840952218 -0.152589679 6.07170439
-0.840952218 -0.152589679 6.55744123
-0.840952218 -0.152589679 7.04317856
-0.840952218 -0.152589679 7.52891588
-0.840952218 -0.152589679 8.01465321
-0.840952218 -0.152589679 8.50039005
-0.840952218 -0.152589679 8.9861269
-0.840952218 -0.152589679 9.47186375
-0.840952218 -0.152589679 9.95760155
-0.840952218 -0.152589679 10.4433384
-0.840952218 -0.152589679 10.9290752
-0.840952218 -0.152589679 11.414813
-0.840952218 -0.152589679 11.9005499
-0.840952218 -0.152589679 12.3862867
-0.840952218 -0.152589679 12.8720245
-0.840952218 -0.152589679 13.3577614
-0.840952218 -0.152589679 13.8434982
-0.840952218 -0.152589679 14.3292351
-0.840952218 -0.152589679 14.8149729
-0.840952218 -0.152589679 15.3007097
-0.840952218 -0.152589679 15.7864466
-0.840952218 -0.152589679 16.2721844
-0.840952218 -0.152589679 16.7579212
-0.840952218 -0.152589679 17.2436581
-0.840952218 -0.152589679 17.7293949
-0.840952218 -0.152589679 18.2151318
-0.840952218 -0.152589679 18.7008705
-0.840952218 -0.152589679 19.1866074
-0.840952218 -0.152589679 19.6723442
-0.840952218 -0.152589679 20.1580811
-0.840952218 -0.152589679 20.6438179
-0.840952218 -0.152589679 21.1295547
-0.840952218 -0.152589679 21.6152916
-0.840952218 -0.152589679 22.1010303
-0.840952218 -0.152589679 22.5867672
-0.840952218 -0.152589679 23.072504
-0.840952218 -0.152589679 23.5582409
-0.840952218 -0.152589679 24.0439777
-0.840952218 -0.152589679 24.5297146
-0.840952218 -0.152589679 25.0154533
-0.840952218 -0.152589679 25.5011902
-0.840952218 -0.152589679 25.986927
-0.840952218 -0.152589679 26.4726639
-0.840952218 -0.152589679 26.9584007
-0.840952218 -0.152589679 27.4441376
-0.840952218 -0.152589679 27.9298744
-0.840952218 -0.152589679 28.4156132
-0.840952218 -0.152589679 28.90135
-0.840952218 -0.152589679 29.3870869
-0.840952218 -0.152589679 29.8728237
-0.840952218 -0.152589679 30.3585606
-0.840952218 -0.152589679 30.8442974
-0.840952218 -0.152589679 31.3300343
-0.840952218 -0.152589679 31.815773
-0.840952218 -0.152589679 32.3015099
-0.840952218 -0.152589679 32.7872467
-0.840952218 -0.152589679 33.2729836
-0.840952218 -0.152589679 33.7587204
-0.840952218 -0.152589679 34.2444572
-0.840952218 -0.152589679 34.7301941
-0.840952218 -0.152589679 35.2159309
-0.840952218 -0.152589679 35.7016678
-0.840952218 -0.152589679 36.1874046
-0.840952218 -0.152589679 36.6731453
-0.840952218 -0.152589679 37.1588821
-0.840952218 -0.152589679 37.644619
-0.840952218 -0.152589679 38.1303558
-0.840952218 -0.152589679 38.6160927
-0.840952218 -0.152589679 39.1018295
-0.840952218 -0.152589679 39.5875664
-0.840952218 -0.152589679 40.0733032
-0.840952218 -0.152589679 40.5590401
-0.840952218 -0.152589679 41.0447769
-0.840952218 -0.152589679 41.5305138
-0.840952218 -0.152589679 42.0162506
-0.840952218 -0.152589679 42.5019875
-0.840952218 -0.152589679 42.9877281
-0.840952218 -0.152589679 43.473465
-0.840952218 -0.152589679 43.9592018
-0.840952218 -0.152589679 44.4449387
-0.840952218 -0.152589679 44.9306755
-0.840952218 -0.152589679 45.4164124
-0.840952218 -0.152589679 45.9021492
-0.840952218 -0.152589679 46.387886
-0.840952218 -0.152589679 46.8736229
-0.840952218 -0.152589679 47.3593597
-0.840952218 -0.152589679 47.8450966
-0.840952218 -0.152589679 48.3308334
-0.840952218 -0.152589679 48.8165703
-0.840952218 -0.152589679 49.3023109
-0.840952218 -0.152589679 49.7880478
-0.840952218 -0.152589679 50.2737846
-0.840952218 -0.152589679 50.7595215
-0.840952218 -0.152589679 51.2452583
-0.840952218 -0.152589679 51.7309952
-0.840952218 -0.152589679 52.216732
-0.840952218 -0.152589679 52.7024689
-0.840952218 -0.152589679 53.1882057
-0.840952218 -0.152589679 53.6739426
-0.840952218 -0.152589679 54.1596794
-0.840952218 -0.152589679 54.6454163
-0.840952218 -0.152589679 55.1311531
-0.840952218 -0.152589679 55.61689
-0.840952218 -0.152589679 56.1026306
-0.840952218 -0.152589679 56.5883675
-0.840952218 -0.152589679 57.0741043
-0.840952218 -0.152589679 57.5598412
-0.840952218 -0.152589679 58.045578
-0.840952218 -0.152589679 58.5313148
-0.840952218 -0.152589679 59.0170517
-0.840952218 -0.152589679 59.5027885
-0.840952218 -0.152589679 59.9885254
-0.840952218 -0.152589679 60.4742622
-1.26521635 0.0231462456 60.9599991
-1.4409523 0.447410315 60.9599991
-1.26521635 0.871674359 60.9599991
-0.840952218 1.04741037 60.4742622
-0.840952218 1.04741037 59.9885254
[...]
CELL_DATA 9425
SCALARS TALLY_TAG double 1
LOOKUP_TABLE default
0.0004843259429 
0.0004545192567 
0.0004578720022 
0.0007308229498 
0.000736662198 
0.0006177947911 
0.0005844355246 
0.000703139636 
0.0004473527063 
0.0005003801718 
0.0004046171446 
0.0004385850733 
0.0005963031071 
0.0003864747059 
0.0002121539073 
0.0003951878046 
0.0003331194182 
0.0003183740095 
0.000238582065 
0.0006445299653 
0.0003938915576 
0.0008598492046 
0.000275789039 
0.0004741125758 
0.0005800829483 
0.000317916876 
0.0004453629787 
0.0005045490703 
0.0006593346043 
0.000364356036 
0.0004602692989 
0.0004033226439 
0.0004643436053 
0.0003344151881 
0.0006453868779 
0.0007040362911 
0.0002230859982 
0.0002986440333 
0.0005416402286 
0.0003047553288 
0.0003479880498 
0.0004035672761 
0.000629488618 
0.0003039048499 
0.0002879019212 
0.0003615994729 
0.0002472891171 
0.0007595304145 
0.0002438321332 
0.0005866818755 
0.000558362253 
0.000348241827 
0.0004673806811 
0.0005094574252 
0.000841011012 
0.0001728607912 
0.0002899788875 
0.0006515764406 
0.0007757830183 
0.0004316369534 
0.0001838464447 
0.0002633110726 
0.0003001767418 
0.0001289723157 
0.0003459789919 
0.0002864458905 
0.0006194246875 
0.0004209485002 
0.0003620004144 
0.0005271792473 
0.000578199744 
0.0005158710042 
0.000359254925 
0.0002042246493 
0.000320272674 
0.0004384069944 
0.0003473946363 
0.0002956346843 
0.0004415014502 
0.0006422353073 
0.0003827698153 
0.0003555587533 
0.0008588208461 
0.0005810890442 
0.0009983392157 
0.0006100658348 
0.0005652749091 
0.0002840342978 
0.0003449622209 
0.0003942367231 
0.0008706321846 
0.000339813417 
0.0004583155596 
0.0005360330435 
0.0005117722081 
0.0003427498342 
0.0005435763019 
0.0003224655413 
0.000825261628 
0.0003801465984 
0.0005523094932 
0.0004314159092 
0.0005030544819 
0.0005938058122 
0.0003884757625 
0.0003004744006 
0.0004329945296 
0.0004029364829 
0.0004516227449 
0.0003959108192 
0.0004949995855 
0.0006073652505 
0.0004869594934 
0.0004634613415 
0.0003201173768 
0.0007207908622 
0.0003177159098 
0.0005406801909 
0.0006772437999 
0.0004014416489 
0.0004989746884 
0.0006294734379 
0.0007095803444 
0.0003263747543 
0.0003082981576 
0.0006694133246 
0.0004285176063 
0.0006460913233 
0.0008012581971 
0.0004971371751 
0.0003419651179 
0.0005254345712 
0.0002183891376 
0.0004239598179 
0.0003124319167 
0.000529238864 
0.0004792574909 
0.0002929383192 
0.0004442470274 
0.0003576411373 
0.0007668336704 
0.000556679027 
0.0005466061323 
0.0006779608227 
0.0005079120931 
0.0004838667368 
0.0007174762561 
0.0002987940482 
0.0007487005724 
0.0008330142857 
0.0004850939844 
0.0002764011862 
0.0005716466786 
0.0003421067249 
0.0004399543849 
0.0001955329943 
0.0003775850999 
0.0004621749622 
0.0003769016328 
0.0002758073974 
0.0003424576317 
0.0004213705861 
0.000414344636 
0.0004492079309 
0.0001385107739 
0.0003661857808 
0.0003834407427 
0.0007753085944 
0.0003624585433 
0.000537248122 
0.0004938108792 
0.0004555992982 
0.0002718035941 
0.0002503101632 
0.0001371510302 
0.0002429711455 
0.0003310025152 
0.0002711870015 
0.0002875178153 
0.0004226523775 
0.000376519325 
0.000188795359 
0.0008825811543 
0.0004231072586 
0.0005171909572 
0.000404741047 
0.0006447517979 
0.0004858201582 
0.0002629848063 
0.0006369561692 
0.0007077274902 
0.0007823103886 
0.0002307253551 
0.0003667397452 
0.0002565878706 
0.0003309181785 
0.0001019053785 
0.0002808930049 
0.0002332331447 
0.0002574938489 
0.0007726521222 
0.0008377645153 
0.0006074606479 
0.0004251736161 
0.0003729143083 
0.0004966559157 
0.0002553398106 
0.0002979002986 
0.000391076438 
0.0002288582453 
0.000186003934 
0.0003795698756 
0.0004626804395 
0.0003761774838 
0.0003470685348 
0.0005317632062 
0.0006986964918 
0.0002106780831 
0.0002474217843 
0.0001671105408 
0.0002067387469 
0.0002903506497 
0.00030282681 
0.0003687165466 
0.0002553673338 
0.0002327077139 
0.0003205429795 
0.0002925059897 
0.00012225197 
0.0001312608444 
0.0002272814528 
0.0003395160139 
0.0005985530853 
0.0007491481806 
0.0003092384476 
0.0002621893323 
0.0005660719245 
0.0005338072292 
0.0003316950821 
0.0005404629929 
0.0001875942971 
0.0003222888577 
0.0003168700504 
0.0002828830816 
0.0003465305881 
0.0001142065092 
0.0003470887601 
0.0003527257219 
0.0002490157706 
0.0004051257789 
0.0002934693971 
0.0003498429753 
0.000213391283 
0.0005370072113 
0.0005712936659 
0.000349348469 
0.0003395880406 
0.0002691052288 
0.0004318386354 
0.0003578150922 
0.0003867613941 
0.0008356183063 
0.0002800609285 
0.0003227177842 
0.0006067179408 
0.0003021090567 
0.0003280425088 
0.0003196999065 
0.0003551971176 
0.000264067165 
0.0005027162826 
0.0001570562638 
0.0002990734337 
0.0003782521685 
0.0007051101609 
0.0003921707976 
0.0004304316168 
0.0005892494625 
0.0004625119401 
0.0003478410747 
0.0001739273237 
0.0002582085242 
0.0004592141728 
0.0004213314754 
0.0003363999885 
0.0002287265399 
0.0004845799389 
0.0004582256552 
0.0002339448063 
0.0002590879376 
0.0006515077785 
0.00038027242 
0.0004123181792 
0.0003922398357 
0.000430298908 
0.0005130222172 
0.0001829553086 
0.0003990178707 
0.0002630573876 
0.0002282901103 
0.0001857421692 
0.0003398164757 
0.0005101025446 
0.0004941999263 
0.0001387173367 
0.0001700755672 
0.0003141550695 
0.000317066504 
0.0002609748126 
0.0004692418422 
0.0001452482297 
0.0003366637131 
0.0003430782259 
0.0002100808214 
0.000247993643 
0.000427683285 
0.0003535552147 
0.0002881208727 
0.0004746937192 
0.000933721664 
0.0003961468829 
0.0004654574918 
0.0007361148761 
0.0007522440449 
0.0001801762732 
0.0003452306845 
0.0004203973473 
0.0005289693076 
0.0006778814394 
0.0006606303232 
0.0003606004501 
0.0003471471476 
0.000364548502 
0.0006272093846 
0.0002770925722 
0.0002577310919 
0.0003569237569 
0.0003861350564 
0.0002779579334 
0.000341482092 
0.0003463703399 
0.0002988744336 
0.0001563002442 
0.0001690263635 
0.0006932109741 
0.00021989576 
0.0003182149641 
0.0001393617144 
0.0002963074244 
0.0002456926839 
0.0001100288625 
0.0002467335973 
0.0002935239523 
0.0003798927769 
0.0004133820595 
0.0002746484897 
0.0003206687676 
0.0002587247575 
0.0002801649602 
0.0003140535344 
0.0003053007608 
0.0002899412581 
0.0002781396593 
0.0002600635913 
0.0003239454368 
0.0005624867452 
0.0006282510448 
0.0003571606589 
0.0003391522797 
0.0003874314827 
0.0001932075798 
0.0001874969798 
0.0005095766606 
0.0004359296179 
0.0001882519669 
0.0002476842365 
0.0002676405659 
0.0003626810542 
0.0003709615036 
0.0005582171717 
0.0007017284291 
0.0005007809514 
0.000380552991 
0.0003587672114 
0.0005619862272 
0.000563058183 
0.0001426328724 
0.0002635135904 
0.0005658010803 
0.0003220239496 
0.0003647317176 
0.0003829285777 
0.0002223747342 
0.0003191634768 
0.0001949247249 
0.0003833809647 
0.0005010047102 
0.0004461689227 
0.0006069256408 
0.0004087407135 
0.0006055259035 
0.0005687012467 
0.0005119249012 
0.0004772616608 
0.0005354975938 
0.000217872408 
0.0007500581818 
0.0007199926558 
0.0003814273554 
0.0004834362162 
0.0002193857023 
0.000327499202 
0.0004029398697 
0.0002615849209 
0.0002681459702 
0.0002826666451 
0.0003156209829 
0.0001231545752 
0.0002263492611 
0.0003115485712 
0.0004435367572 
0.0002515387729 
0.0003454011933 
0.0001488362561 
0.0002059178609 
0.0003465492779 
0.0003886021865 
0.0004747227858 
0.0007945302791 
0.0002642056736 
0.0002889912123 
0.0005436560417 
0.0009958892056 
0.0004582290036 
0.0002791279059 
0.000477383818 
0.000359144496 
0.0001761092798 
0.0005135404947 
0.0005623056781 
0.0005175097564 
0.0006188969983 
0.0005475226462 
0.0003376873044 
0.0005777872925 
0.0004811063183 
0.0004288651283 
0.0003019105726 
0.0002689259084 
0.0002404612308 
0.0001171469618 
0.000272636341 
0.0003558618381 
0.0002479404534 
0.0002679656683 
0.0001850795525 
0.0002451762304 
0.0002698384435 
0.0005021216481 
0.0004724613067 
0.0005757947851 
0.0003989807719 
0.0002504808323 
0.0005953696235 
0.000852750405 
0.000380560698 
0.000389715008 
0.0005049750647 
0.0003247806859 
0.0003289169918 
0.0002042481465 
0.0002613123831 
0.0003122057274 
0.000247057525 
0.0001018170404 
0.0004244833319 
0.0003679372209 
0.0004348326957 
0.0002672194285 
0.0003835786742 
0.0002634992253 
0.0001035656496 
0.0002035260503 
0.0006230243143 
0.0005570161756 
0.0005695573833 
0.0005296066214 
0.0007278536932 
0.0004203579066 
0.0005660196428 
0.0005671713933 
0.0004973872971 
0.0005133852908 
0.0003568869758 
0.0004919040609 
0.0004688828166 
0.0005722543475 
0.0005112824288 
0.000571959764 
0.0003891799791 
0.0003453817586 
0.0002534397524 
0.0001862297214 
0.0002493171558 
0.0003504056555 
0.0003192382566 
0.0002200597063 
0.0004083898112 
0.0002758086806 
0.0002105896295 
0.0002562089616 
0.0002635464663 
0.0003563926249 
0.000206863164 
0.0003010258401 
0.0002393536978 
0.000165681509 
0.0001826387304 
0.0005052517573 
0.0002861940594 
0.0003497525044 
0.0003427495534 
0.0003304351182 
0.0002184563356 
0.000154298002 
0.000398870639 
0.0003111551079 
0.0002836088064 
0.0002870134934 
0.0004015649254 
0.00057902017 
0.0005227276115 
0.0006097518502 
0.0004052213921 
0.0003444686549 
0.0005269472827 
0.0003245512338 
0.0002011498533 
0.0002837147377 
0.0002555625725 
0.0006156086955 
0.0006422067822 
0.0001644592311 
0.0006203745763 
0.0004207954036 
0.0003514899741 
0.00030020803 
0.0007066946522 
0.000278531127 
0.000476407382 
0.0006869807304 
0.0005953215449 
0.0006376109391 
0.0007062324379 
0.0005688593015 
0.0007719789841 
0.0005218955327 
0.0002292599821 
0.000317639356 
0.0002042514569 
0.0002001919994 
0.0002466934002 
0.0002528888883 
0.0002147427396 
0.0002747701446 
0.0003113938371 
0.0002776673145 
0.0003848132063 
0.0003670492791 
0.0002579602552 
0.0004255247075 
0.0005126603356 
0.0002812673503 
0.0006880794714 
0.0003971411732 
0.0008430400868 
0.0004068916623 
0.0003982121236 
0.0005626426158 
0.0005082320368 
0.0002487068743 
0.0004722985234 
0.0004864691558 
0.0007217980822 
0.0004830786401 
0.0003372037157 
0.0003739960811 
0.0002306243174 
0.0006230416115 
0.0007568139922 
0.0004004502388 
0.0005838671208 
0.0001376653413 
0.0005021555043 
0.0003645880313 
0.0005073456816 
0.0005600803779 
0.0004384956273 
0.0005239219169 
0.0006192618453 
0.0002809197853 
0.0002904078146 
0.0002267875824 
0.000227204684 
0.0002669625507 
0.0001818357425 
0.0003391993673 
0.0003443180629 
0.0004680656613 
0.0002812912054 
0.0005340274523 
0.0003885999067 
0.000315030615 
0.0007407739398 
0.0009234935713 
0.0004169978939 
0.0005606256815 
0.0003001832095 
0.0003474258107 
0.000478489347 
0.0004182069318 
0.0002101658614 
0.0005371697961 
0.0005770279018 
0.0002179600092 
0.0003062150796 
0.0002240572372 
0.0002967466695 
0.0004282980163 
0.0002861459378 
0.0002436410825 
0.0002949427927 
0.0001663020442 
0.0003758737005 
0.0003657290014 
0.0002936269824 
0.0003029546463 
0.0002098681686 
0.000181887863 
0.0001494799719 
0.0003108002737 
0.0002344574944 
0.0002573532725 
0.0002883076837 
0.0006396832718 
0.0003381253043 
0.0004278356362 
0.0006148399587 
0.0002886968459 
0.0004325591153 
0.0003462350686 
0.0007069312531 
0.0005369882627 
0.0003005108924 
0.0006251803597 
0.0005936625037 
0.0006512463798 
0.0004810479144 
0.0002852930194 
0.0005128600434 
0.0005832246824 
0.0009409619345 
0.0003188257166 
0.0005291464511 
0.0001577657918 
0.0003325531489 
0.0002584349945 
0.0002029691872 
0.0004762287445 
0.0003348048878 
0.0005915479156 
0.0004101778572 
0.0004697742049 
0.0004161748683 
0.0002616419608 
0.0003652347937 
0.0004172793268 
0.0003198784485 
0.0003309198558 
0.0005703174666 
0.0003710299369 
0.0003419320076 
0.0002987344452 
0.0002013713733 
0.0002848635937 
0.00037346047 
0.0003927342135 
0.0002531777093 
0.0001952203153 
0.0002045494176 
0.0003499761174 
0.0003943255405 
0.0003826199954 
0.000271195153 
0.0004777988293 
0.0006584027786 
0.0004974865303 
0.0003774703364 
0.0001856991537 
0.0002930825965 
0.0003287997234 
0.0001462843468 
0.0002353937064 
0.0001776076072 
0.0002808229125 
0.0004432901154 
0.0002982051431 
0.0004875725535 
0.0001018455034 
0.0003598476233 
0.0003170670036 
0.000294795017 
0.0003312759739 
0.0002963273216 
0.0002941281918 
0.0008776313484 
0.000363420581 
0.0004099104443 
0.0003615782295 
0.0003587496924 
0.0004191168879 
0.000351223444 
0.0005099230946 
0.0005384674087 
0.0002204268202 
0.0002518670297 
0.0003287883044 
0.0002710185139 
0.0002218342671 
0.0004036580802 
0.0003799903034 
0.0002935827969 
0.0003193656423 
0.0003992974266 
0.0003159799336 
0.0003417978351 
0.000236578726 
0.0001815112025 
0.0003637274631 
0.0002247427465 
0.0003125424919 
0.000210290764 
0.0003812233389 
0.0004154192641 
0.0002690567355 
0.0005270261383 
0.0004002445084 
0.0004272366163 
0.0003277203723 
0.0005159031827 
0.0002718996291 
0.0001638683621 
0.0002944825333 
0.0001827096452 
0.0002781318643 
0.0003360072505 
0.0004255779259 
0.0002745241286 
0.0006351176072 
0.0005472303095 
0.0002929056237 
0.0005611220558 
0.0005510889317 
0.0002673657602 
0.0003539740052 
0.0002185089299 
0.0001842066336 
0.0003474334296 
0.0003370035836 
0.0002628155024 
0.0002293898986 
0.0002915182932 
0.0004467216471 
0.0003350961018 
0.0002877366697 
0.0002840514591 
0.0002684362669 
0.0003655833039 
0.0004995548515 
0.0007984132096 
0.0003414404217 
0.0003667009435 
0.0007200939893 
0.0004235106056 
0.0001909375545 
0.0003865470895 
0.001195181251 
0.0003552741798 
0.00019604515 
0.000353329254 
0.0002613917606 
0.0003341104711 
0.0005746586878 
0.0003583879792 
0.0003203485015 
0.0002105718752 
0.0003182440023 
0.0002615840115 
0.0003614766707 
0.0004191565793 
0.000394580568 
0.0003314366532 
0.0003697259701 
0.0002414238939 
0.0007066100476 
0.0007036097645 
0.0005792354862 
0.0003257426269 
0.0003396899629 
0.0004475526482 
0.0006243335738 
0.0004270792367 
0.0005051799927 
0.0006495003768 
0.000514576046 
0.0003143490357 
0.0003902012089 
0.0003146614651 
0.0003037928476 
0.0003410554872 
0.0003819007561 
0.0002187503518 
0.000365866611 
0.0003804594488 
0.0001980496476 
0.0002557986675 
0.000211120423 
0.0005490902555 
0.0003036108622 
0.0006124800983 
0.000212445683 
0.0004650187054 
0.0002703332351 
0.0004441072195 
0.0003700332871 
0.0007957837535 
0.000455596408 
0.0007014260159 
0.0006687211433 
0.0005219128046 
0.0007980246777 
0.0003412894338 
0.0003245713771 
0.0004700549746 
0.0001693262741 
0.0004320441357 
0.0004897456807 
0.00040320166 
0.0003391624963 
0.000491558289 
0.0004739106546 
0.0005851305358 
0.0006777047423 
0.0007427646745 
0.0005643071283 
0.0001782216549 
0.0002409683721 
0.0002785026255 
0.0003452247965 
0.0003448920243 
0.0002346570761 
0.0002818974436 
0.0003507799209 
0.0006136833332 
0.0002458593703 
0.0003016495169 
0.0001878139529 
0.0002565844572 
0.0004474106308 
0.0004762692168 
0.0005359218893 
0.0006660575645 
0.0004715909487 
0.0003474734861 
0.0003259669408 
0.0005271926311 
0.0005212943009 
0.0003899650588 
0.0004278823143 
0.0007561707158 
0.0004836741318 
0.0003908548532 
0.0002732268534 
0.000335285853 
0.0005643877099 
0.0005124728156 
0.0002874957634 
0.0006746057603 
0.0004754920858 
0.0004568183285 
0.0004059009632 
0.0003854189397 
0.0004697676464 
0.000424298076 
0.0007162826014 
0.0002074473812 
0.0002933105064 
0.0004375374729 
0.0001699567999 
0.0004005818821 
0.0004285586632 
0.0003710874901 
0.0004084840479 
0.0002266584895 
0.0001997430741 
0.0004092110661 
0.0006307127075 
0.0004566457729 
0.0002880360367 
0.0004604242125 
0.0002587627726 
0.0002926085927 
0.0003297020117 
0.0003638548141 
0.0003874591124 
0.0006480459915 
0.0004002946661 
0.0003867844737 
0.0003165397134 
0.000321851376 
0.0001673404267 
0.0002778359253 
0.0003543904195 
0.0003432450238 
0.0002539782912 
0.0003332624669 
0.0003245896406 
0.0003147758937 
0.0002070621703 
0.0004897624514 
0.0005353476386 
0.0002536943596 
0.0002371085043 
0.0002279225209 
0.0004367929316 
0.0004967217457 
0.0007394478139 
0.0003324101573 
0.0002164369365 
0.0003786978723 
0.0003963085631 
0.000593338953 
0.0001546628441 
0.0005506495848 
0.0006838001677 
0.000563408066 
0.0006499323713 
0.0005241093455 
0.000352489047 
0.0004675375906 
0.0005001957415 
0.0005290009601 
0.0005855391218 
0.0007763833583 
0.0003365890963 
0.0003094244033 
0.0005682997225 
0.0003002793336 
0.0002958061399 
0.0005897410252 
0.0003442569825 
0.00035277373 
0.0006658564411 
0.0002463548443 
0.0001406877216 
0.0003928114565 
0.0004903655517 
0.0004125368754 
0.0003572166323 
0.0008807722939 
0.0003927188836 
0.0003828306782 
0.0003330443658 
0.0003052313898 
0.0002661897822 
0.0002847809989 
0.0004379672179 
0.0003797161988 
0.0007899851883 
0.0005861683143 
0.0004811972831 
0.0004577189912 
0.0002319647623 
0.0003622215382 
0.0003653158381 
0.0002992202661 
0.0001854590766 
0.0002240733237 
0.000342711639 
0.0003110278179 
0.0002280692782 
0.0002135551272 
0.0001550716035 
0.0004188045164 
0.0003286019608 
0.0006030668935 
0.0003378531464 
0.0004095960349 
0.000272317947 
0.00030498187 
0.0005174124717 
0.0002486445187 
0.0004480451627 
0.0004469134786 
0.0005911667517 
0.0003326515535 
0.0004351094692 
0.0004579646448 
0.0004156219063 
0.0004009512742 
0.0003021390072 
0.0004201580082 
0.0006359702726 
0.0007264140962 
0.0008067111155 
0.0006097557282 
0.0006624385939 
0.0001906311876 
0.0002977033023 
0.000478148299 
0.0003847771572 
0.000537688298 
0.0006276783211 
0.0008122304412 
0.0006994009266 
0.0004117534674 
0.0005510500693 
0.000165911054 
0.0002798738329 
0.0006253007624 
0.0002065815584 
0.0005153735189 
0.0007010717288 
0.0003499301346 
0.0005415452573 
0.000378671872 
0.0003656195328 
0.0002832854263 
0.0001818681166 
0.0002832244348 
0.0004229432232 
0.0003356701499 
0.0003067407716 
0.0002111054195 
0.0002534755116 
0.0003019217351 
0.0003963938122 
0.0003184488809 
0.0002835869317 
0.0001120648894 
0.000519358887 
0.0002146365744 
0.0003000179361 
0.000307187197 
0.0004730426042 
0.0004455082903 
0.0005046577384 
0.0004350947098 
0.0004338972718 
0.000434014415 
0.0005792441938 
0.0001594407605 
0.0003787006226 
0.0005520206516 
0.0008802632 
0.0002853499363 
0.0005457580484 
0.0004661105349 
0.0005004775043 
0.0007784239828 
0.0003720502078 
0.0004053041578 
0.0004009546663 
0.0005065874505 
0.0004549108345 
0.00032111259 
0.000889287738 
0.0004959856339 
0.0006430161347 
0.0004620558486 
0.0004122271276 
0.0001420390978 
0.0004066321511 
0.0005393196356 
0.0003293075318 
0.0003166628296 
0.0003973360335 
0.0002574040747 
0.0003049771028 
0.0002231370853 
0.0003975383627 
0.0002470417428 
0.0002686833909 
0.0003590851574 
0.0002964433718 
0.0004883976693 
0.0002344553433 
0.0001519495489 
0.0004281787902 
0.0003596118869 
0.0003738830624 
0.0006390650393 
0.0005778886095 
0.0002968905136 
0.0004673700416 
0.0008168835374 
0.0003781826696 
0.0008241824103 
0.0002767002104 
0.0004767248183 
0.0001848864062 
0.0005814947306 
0.0002471471132 
0.000361758949 
0.0007135289847 
0.0002970591672 
0.0003517297083 
0.0003562958897 
0.0002828765135 
0.0003330934176 
0.0002526330165 
0.0003145243951 
0.0003446416817 
0.0004427438828 
0.0005414768311 
0.0003984480643 
0.0003146959601 
0.0004846080275 
0.0005359021109 
0.0002436459818 
0.000280091703 
0.0001651337183 
0.0003984235671 
0.0004475668081 
0.0002987906749 
0.000344299129 
0.0004885925062 
0.0003869275057 
0.0003040464532 
0.0003515105134 
0.0005295228511 
0.0003764602419 
0.0004985030583 
0.0003026251029 
0.0003463989183 
0.0004604755895 
0.0003993347945 
0.000232553125 
0.0005483189693 
0.0005361627519 
0.0005272312888 
0.0004123865434 
0.0001764997013 
0.0003041853491 
0.0004373004564 
0.0002493525249 
0.0001191445031 
0.0001865757735 
0.0003086637262 
0.0002916925558 
0.0001654032799 
0.0001849685364 
0.0002877672103 
0.0004530461986 
0.0004238179212 
0.0001683811245 
0.0004946434062 
0.0004431922389 
0.0005561913218 
0.0004416159123 
0.000418420436 
0.0004659291896 
0.0003218810581 
0.0003846019387 
0.0001910508261 
0.0004805020592 
0.0004345015811 
0.0002562887881 
0.0003950931822 