# vtk DataFile Version 3.0
MOAB 4.9.0
ASCII
DATASET UNSTRUCTURED_GRID
POINTS 15725 double
-0.441866696 -1.43915224 -60.9600182
-0.441866696 -0.239152238 -60.9600182
-0.441866696 -0.239152238 60.9599991
-0.441866696 -1.43915224 60.9599991
-0.840952218 -0.152589679 -60.9600182
-0.840952218 1.04741037 -60.9600182
-0.840952218 1.04741037 60.9599991
-0.840952218 -0.152589679 60.9599991
0.445610315 0.246495873 -60.9600182
0.445610315 1.44649589 -60.9600182
0.445610315 1.44649589 60.9599991
0.445610315 0.246495873 60.9599991
0.00187181414 1.90867186 60.9599991
0.00187181414 1.90867186 -60.9600182
0.00187181414 -1.90132821 -60.9600182
0.00187181414 -1.90132821 60.9599991
0.856077969 0.182259783 60.9599991
0.856077969 -1.01774025 60.9599991
0.856077969 0.182259783 -60.9600182
0.856077969 -1.01774025 -60.9600182
-0.866130769 -1.26341629 -60.9600182
-1.04186666 -0.839152217 -60.9600182
-0.866130769 -0.414888173 -60.9600182
-0.441866696 -0.239152238 -60.4742813
-0.441866696 -0.239152238 -59.9885445
-0.441866696 -0.239152238 -59.5028076
-0.441866696 -0.239152238 -59.0170708
-0.441866696 -0.239152238 -58.5313339
-0.441866696 -0.239152238 -58.0455971
-0.441866696 -0.239152238 -57.5598602
-0.441866696 -0.239152238 -57.0741234
-0.441866696 -0.239152238 -56.5883865
-0.441866696 -0.239152238 -56.1026497
-0.441866696 -0.239152238 -55.6169128
-0.441866696 -0.239152238 -55.131176
-0.441866696 -0.239152238 -54.6454391
-0.441866696 -0.239152238 -54.1596985
-0.441866696 -0.239152238 -53.6739616
-0.441866696 -0.239152238 -53.1882248
-0.441866696 -0.239152238 -52.7024879
-0.441866696 -0.239152238 -52.2167511
-0.441866696 -0.239152238 -51.7310143
-0.441866696 -0.239152238 -51.2452774
-0.441866696 -0.239152238 -50.7595406
-0.441866696 -0.239152238 -50.2738037
-0.441866696 -0.239152238 -49.7880669
-0.441866696 -0.239152238 -49.30233
-0.441866696 -0.239152238 -48.8165932
-0.441866696 -0.239152238 -48.3308563
-0.441866696 -0.239152238 -47.8451157
-0.441866696 -0.239152238 -47.3593788
-0.441866696 -0.239152238 -46.873642
-0.441866696 -0.239152238 -46.3879051
-0.441866696 -0.239152238 -45.9021683
-0.441866696 -0.239152238 -45.4164314
-0.441866696 -0.239152238 -44.9306946
-0.441866696 -0.239152238 -44.4449577
-0.441866696 -0.239152238 -43.9592209
-0.441866696 -0.239152238 -43.473484
-0.441866696 -0.239152238 -42.9877472
-0.441866696 -0.239152238 -42.5020103
-0.441866696 -0.239152238 -42.0162735
-0.441866696 -0.239152238 -41.5305328
-0.441866696 -0.239152238 -41.044796
-0.441866696 -0.239152238 -40.5590591
-0.441866696 -0.239152238 -40.0733223
-0.441866696 -0.239152238 -39.5875854
-0.441866696 -0.239152238 -39.1018486
-0.441866696 -0.239152238 -38.6161118
-0.441866696 -0.239152238 -38.1303749
-0.441866696 -0.239152238 -37.6446381
-0.441866696 -0.239152238 -37.1589012
-0.441866696 -0.239152238 -36.6731644
-0.441866696 -0.239152238 -36.1874275
-0.441866696 -0.239152238 -35.7016907
-0.441866696 -0.239152238 -35.2159538
-0.441866696 -0.239152238 -34.7302132
-0.441866696 -0.239152238 -34.2444763
-0.441866696 -0.239152238 -33.7587395
-0.441866696 -0.239152238 -33.2730026
-0.441866696 -0.239152238 -32.7872658
-0.441866696 -0.239152238 -32.3015289
-0.441866696 -0.239152238 -31.8157921
-0.441866696 -0.239152238 -31.3300552
-0.441866696 -0.239152238 -30.8443184
-0.441866696 -0.239152238 -30.3585815
-0.441866696 -0.239152238 -29.8728428
-0.441866696 -0.239152238 -29.3871059
-0.441866696 -0.239152238 -28.9013691
-0.441866696 -0.239152238 -28.4156322
-0.441866696 -0.239152238 -27.9298954
-0.441866696 -0.239152238 -27.4441586
-0.441866696 -0.239152238 -26.9584198
-0.441866696 -0.239152238 -26.472683
-0.441866696 -0.239152238 -25.9869461
-0.441866696 -0.239152238 -25.5012093
-0.441866696 -0.239152238 -25.0154724
-0.441866696 -0.239152238 -24.5297356
-0.441866696 -0.239152238 -24.0439987
-0.441866696 -0.239152238 -23.55826
-0.441866696 -0.239152238 -23.0725231
-0.441866696 -0.239152238 -22.5867863
-0.441866696 -0.239152238 -22.1010494
-0.441866696 -0.239152238 -21.6153126
-0.441866696 -0.239152238 -21.1295757
-0.441866696 -0.239152238 -20.6438389
-0.441866696 -0.239152238 -20.1581001
-0.441866696 -0.239152238 -19.6723633
-0.441866696 -0.239152238 -19.1866264
-0.441866696 -0.239152238 -18.7008896
-0.441866696 -0.239152238 -18.2151527
-0.441866696 -0.239152238 -17.7294159
-0.441866696 -0.239152238 -17.2436771
-0.441866696 -0.239152238 -16.7579403
-0.441866696 -0.239152238 -16.2722034
-0.441866696 -0.239152238 -15.7864666
-0.441866696 -0.239152238 -15.3007298
-0.441866696 -0.239152238 -14.814992
-0.441866696 -0.239152238 -14.3292551
-0.441866696 -0.239152238 -13.8435183
-0.441866696 -0.239152238 -13.3577814
-0.441866696 -0.239152238 -12.8720436
-0.441866696 -0.239152238 -12.3863068
-0.441866696 -0.239152238 -11.9005699
-0.441866696 -0.239152238 -11.4148321
-0.441866696 -0.239152238 -10.9290953
-0.441866696 -0.239152238 -10.4433584
-0.441866696 -0.239152238 -9.95762062
-0.441866696 -0.239152238 -9.47188377
-0.441866696 -0.239152238 -8.98614693
-0.441866696 -0.239152238 -8.50041008
-0.441866696 -0.239152238 -8.01467228
-0.441866696 -0.239152238 -7.52893543
-0.441866696 -0.239152238 -7.04319811
-0.441866696 -0.239152238 -6.55746126
-0.441866696 -0.239152238 -6.07172394
-0.441866696 -0.239152238 -5.58598709
-0.441866696 -0.239152238 -5.10024977
-0.441866696 -0.239152238 -4.61451244
-0.441866696 -0.239152238 -4.1287756
-0.441866696 -0.239152238 -3.64303827
-0.441866696 -0.239152238 -3.15730119
-0.441866696 -0.239152238 -2.6715641
-0.441866696 -0.239152238 -2.18582702
-0.441866696 -0.239152238 -1.70008981
-0.441866696 -0.239152238 -1.21435273
-0.441866696 -0.239152238 -0.728615582
-0.441866696 -0.239152238 -0.242878437
-0.441866696 -0.239152238 0.242858693
-0.441866696 -0.239152238 0.728595853
-0.441866696 -0.239152238 1.21433294
-0.441866696 -0.239152238 1.70007014
-0.441866696 -0.239152238 2.18580723
-0.441866696 -0.239152238 2.67154431
-0.441866696 -0.239152238 3.1572814
-0.441866696 -0.239152238 3.64301872
-0.441866696 -0.239152238 4.12875557
-0.441866696 -0.239152238 4.61449289
-0.441866696 -0.239152238 5.10023022
-0.441866696 -0.239152238 5.58596706
-0.441866696 -0.239152238 6.07170439
-0.441866696 -0.239152238 6.55744123
-0.441866696 -0.239152238 7.04317856
-0.441866696 -0.239152238 7.52891588
-0.441866696 -0.239152238 8.01465321
-0.441866696 -0.239152238 8.50039005
-0.441866696 -0.239152238 8.9861269
-0.441866696 -0.239152238 9.47186375
-0.441866696 -0.239152238 9.95760155
-0.441866696 -0.239152238 10.4433384
-0.441866696 -0.239152238 10.9290752
-0.441866696 -0.239152238 11.414813
-0.441866696 -0.239152238 11.9005499
-0.441866696 -0.239152238 12.3862867
-0.441866696 -0.239152238 12.8720245
-0.441866696 -0.239152238 13.3577614
-0.441866696 -0.239152238 13.8434982
-0.441866696 -0.239152238 14.3292351
-0.441866696 -0.239152238 14.8149729
-0.441866696 -0.239152238 15.3007097
-0.441866696 -0.239152238 15.7864466
-0.441866696 -0.239152238 16.2721844
-0.441866696 -0.239152238 16.7579212
-0.441866696 -0.239152238 17.2436581
-0.441866696 -0.239152238 17.7293949
-0.441866696 -0.239152238 18.2151318
-0.441866696 -0.239152238 18.7008705
-0.441866696 -0.239152238 19.1866074
-0.441866696 -0.239152238 19.6723442
-0.441866696 -0.239152238 20.1580811
-0.441866696 -0.239152238 20.6438179
-0.441866696 -0.239152238 21.1295547
-0.441866696 -0.239152238 21.6152916
-0.441866696 -0.239152238 22.1010303
-0.441866696 -0.239152238 22.5867672
-0.441866696 -0.239152238 23.072504
-0.441866696 -0.239152238 23.5582409
-0.441866696 -0.239152238 24.0439777
-0.441866696 -0.239152238 24.5297146
-0.441866696 -0.239152238 25.0154533
-0.441866696 -0.239152238 25.5011902
-0.441866696 -0.239152238 25.986927
-0.441866696 -0.239152238 26.4726639
-0.441866696 -0.239152238 26.9584007
-0.441866696 -0.239152238 27.4441376
-0.441866696 -0.239152238 27.9298744
-0.441866696 -0.239152238 28.4156132
-0.441866696 -0.239152238 28.90135
-0.441866696 -0.239152238 29.3870869
-0.441866696 -0.239152238 29.8728237
-0.441866696 -0.239152238 30.3585606
-0.441866696 -0.239152238 30.8442974
-0.441866696 -0.239152238 31.3300343
-0.441866696 -0.239152238 31.815773
-0.441866696 -0.239152238 32.3015099
-0.441866696 -0.239152238 32.7872467
-0.441866696 -0.239152238 33.2729836
-0.441866696 -0.239152238 33.7587204
-0.441866696 -0.239152238 34.2444572
-0.441866696 -0.239152238 34.7301941
-0.441866696 -0.239152238 35.2159309
-0.441866696 -0.239152238 35.7016678
-0.441866696 -0.239152238 36.1874046
-0.441866696 -0.239152238 36.6731453
-0.441866696 -0.239152238 37.1588821
-0.441866696 -0.239152238 37.644619
-0.441866696 -0.239152238 38.1303558
-0.441866696 -0.239152238 38.6160927
-0.441866696 -0.239152238 39.1018295
-0.441866696 -0.239152238 39.5875664
-0.441866696 -0.239152238 40.0733032
-0.441866696 -0.239152238 40.5590401
-0.441866696 -0.239152238 41.0447769
-0.441866696 -0.239152238 41.5305138
-0.441866696 -0.239152238 42.0162506
-0.441866696 -0.239152238 42.5019875
-0.441866696 -0.239152238 42.9877281
-0.441866696 -0.239152238 43.473465
-0.441866696 -0.239152238 43.9592018
-0.441866696 -0.239152238 44.4449387
-0.441866696 -0.239152238 44.9306755
-0.441866696 -0.239152238 45.4164124
-0.441866696 -0.239152238 45.9021492
-0.441866696 -0.239152238 46.387886
-0.441866696 -0.239152238 46.8736229
-0.441866696 -0.239152238 47.3593597
-0.441866696 -0.239152238 47.8450966
-0.441866696 -0.239152238 48.3308334
-0.441866696 -0.239152238 48.8165703
-0.441866696 -0.239152238 49.3023109
-0.441866696 -0.239152238 49.7880478
-0.441866696 -0.239152238 50.2737846
-0.441866696 -0.239152238 50.7595215
-0.441866696 -0.239152238 51.2452583
-0.441866696 -0.239152238 51.7309952
-0.441866696 -0.239152238 52.216732
-0.441866696 -0.239152238 52.7024689
-0.441866696 -0.239152238 53.1882057
-0.441866696 -0.239152238 53.6739426
-0.441866696 -0.239152238 54.1596794
-0.441866696 -0.239152238 54.6454163
-0.441866696 -0.239152238 55.1311531
-0.441866696 -0.239152238 55.61689
-0.441866696 -0.239152238 56.1026306
-0.441866696 -0.239152238 56.5883675
[...]
CELL_DATA 58178
SCALARS TALLY_TAG double 1
LOOKUP_TABLE default
0.000275580661 
0.0001904899438 
0.0001773917096 
0.0001559439737 
0.0004585351273 
0.0002350293935 
0.0001605162053 
0.0002152389008 
0.0002775706237 
0.0002995511665 
0.0001502561991 
0.000193310728 
0.0002063092334 
0.0004755982008 
0.0003100852083 
0.0002215195979 
0.0004341036155 
0.0004073167236 
0.0002842797241 
0.0002338246816 
0.0001221759078 
0.0001384388708 
0.0002944659872 
0.0002509466992 
0.0001391811493 
0.0002057727071 
0.0003048345541 
0.000276311184 
0.0002835519315 
0.0002546057857 
0.0003058266798 
0.000141819612 
0.0001678884037 
0.0001731601363 
0.0002326203867 
5.625616172e-05 
0.00011628786 
0.0004322581909 
0.0003420763208 
0.0002457361378 
0.0001417545609 
0.0001623480557 
0.0002404367431 
0.0004667348307 
0.000211594082 
0.0001773695454 
0.0001160229109 
0.0002054604689 
0.0002849760027 
0.0002688022661 
0.0002197755145 
0.0001983745928 
0.0003250302786 
0.0003456888251 
0.0004366831697 
0.0004791191394 
0.0003354195476 
0.0002248988905 
0.0003356028412 
0.006626607008 
0.0003545098849 
0.000201949028 
0.0003657583254 
0.000234370727 
0.0003037437583 
0.0002165597877 
0.0001829595643 
0.0002984155994 
0.0002675140105 
0.0002105627895 
0.000141665924 
0.0001129192693 
0.0001602284948 
0.0003141713704 
0.0002199768493 
0.00012432242 
0.0001658479922 
0.0001507734862 
0.0001245556019 
0.000171473059 
0.0001988031552 
0.0001199372168 
0.0002661531567 
0.0002519644795 
0.0002699953135 
0.0002264916744 
0.0001999225114 
0.0003029577703 
0.0001965684225 
0.0001368359542 
0.0001638813595 
0.0002212475948 
0.0003399457086 
0.0001945099993 
0.000287817767 
0.0001802522599 
0.001036058056 
0.0005724115359 
0.0003143656073 
0.0001303562459 
0.0002443608053 
0.0001795929584 
0.0004286468955 
0.0001222833316 
0.0002283097706 
0.0003778330876 
0.0005707257709 
0.0001627455663 
0.0002415363736 
0.000207000451 
0.0002058171845 
0.0003781552035 
0.0002272398378 
0.0002382932016 
0.0001945308311 
0.0001180407222 
0.0003103130211 
0.0003049027857 
0.0002184180711 
0.0003536056402 
0.0001877491901 
0.000258004939 
0.0002326308738 
0.0003719908133 
0.0002699369076 
0.0002122604564 
0.0003632403312 
0.0003166382549 
0.0001676454876 
0.0001744848124 
0.0001191204983 
0.0002618210137 
0.0003208275992 
0.0001535947253 
0.0002698946873 
0.0002512146224 
0.0002296893505 
0.0002397082292 
0.0001612969624 
0.0003415280662 
0.0002336606393 
0.0001762486457 
0.0001659581055 
0.0001763226934 
0.0001241700013 
0.0003241493132 
0.0003374012582 
0.0001920996625 
0.0004744433222 
0.001111408942 
0.0002973559227 
0.0001711884036 
0.0002270916848 
0.0002576904435 
0.0002046074689 
0.0003226558166 
0.0001482770998 
0.0002742224685 
0.0002752626281 
0.0001741046047 
0.0002048447568 
0.0002881982479 
0.0002061657013 
0.0005618178557 
0.000283610241 
0.0002356821467 
0.00038820704 
0.0002975459825 
0.0005495769045 
0.0003322806518 
0.0003404886215 
0.0003116529918 
0.0002273539242 
0.0001703908534 
7.984256997e-05 
0.0002431596655 
0.0001679715467 
0.0001185676253 
0.0001145007622 
0.0001791494802 
0.0002151307132 
0.0001668957044 
0.000232632153 
0.0001109189581 
0.0001002714877 
0.001345173883 
0.0001981865095 
5.825333269e-05 
0.0003367362617 
0.000301409034 
0.000157336643 
0.0002758846767 
0.0002000079036 
0.0001225349939 
0.0002185398333 
0.0004057067556 
0.0002905258532 
0.0002087599625 
0.0002117884567 
0.0005218393283 
0.0001226606349 
3.850652705e-05 
0.0002155872042 
0.001387325727 
0.0001117472089 
0.0002381368188 
7.597801057e-05 
0.0001793403968 
0.000275078994 
0.001100976531 
0.0002077792497 
8.972558411e-05 
0.0002403058194 
0.0002353476328 
0.0001773588878 
0.000226374428 
5.056654204e-05 
0.0001759591504 
0.001026804523 
0.0002073391212 
0.000207718774 
0.000213061558 
9.891537838e-05 
0.0002559739542 
0.0002604978253 
0.0001886132422 
0.0002010726617 
0.0002649027929 
0.0002274757829 
0.0001617287537 
0.0002367200925 
0.0003799486723 
0.000235189887 
0.0002747765569 
0.0004560476222 
0.000312042648 
0.0002108575746 
0.0002612643482 
0.0003123833369 
0.0003025527587 
0.0003050763159 
0.000419793467 
0.0001901277907 
0.0002370629757 
0.0003350637402 
0.0002422038227 
0.0003542196629 
0.0005137098554 
0.003868751081 
0.003176478743 
0.002696515837 
0.001241306458 
0.0006903574579 
0.002916934974 
0.003004543771 
0.00166959623 
0.0003907809418 
0.0001015353303 
0.0002752173807 
8.275307214e-05 
0.0003753531114 
0.000332845541 
0.00024926035 
9.831913899e-05 
0.0001848485774 
0.0003315790947 
0.0001660009329 
0.0003634740539 
0.0002280071928 
0.0001297363828 
0.0002414494615 
0.0001174449584 
0.0001850669153 
0.0001673145602 
0.001300356544 
0.0002696451882 
0.0001638346343 
0.0002907608319 
0.0002254782992 
0.0002928212218 
0.0003234971138 
0.0001071553118 
0.0003150212202 
0.0001137231753 
0.0001573929522 
0.0003339821268 
0.0001619814912 
0.0001652560932 
0.0001838941239 
0.0001497489453 
0.0001810016005 
0.0002609234798 
0.0003497484473 
0.0001848328559 
0.0002435610854 
0.0002101285426 
0.000340098097 
0.0001617892305 
0.0002130747691 
0.0001959968746 
7.256826296e-05 
0.0001217376584 
0.0003002403502 
0.0002403520418 
0.0002854302192 
0.0002046021397 
0.0002716031481 
0.000240453901 
0.0001951804498 
0.0001117843043 
0.0002358946287 
0.0002534411256 
0.0002149143745 
0.0003082963668 
0.0003096384005 
0.0002765135447 
0.0003788590912 
0.000296196093 
0.0002225035756 
0.0001518244155 
0.0001856723733 
0.0002006982251 
0.0001398566719 
0.0001576053658 
0.0002523985085 
0.0003431090227 
0.0001708469498 
0.0005266974639 
0.000133889173 
0.001415108281 
0.0002634126619 
0.0002393165499 
0.0002962599922 
0.0001079018332 
0.000248877369 
0.0002107716768 
0.0002099606225 
0.0001634701235 
0.0001907368783 
0.0002218050027 
0.0002182006705 
0.0001667425141 
0.0005647843009 
0.0002102495921 
0.0002246779351 
0.0002116270761 
0.0003510178323 
0.0001899614234 
0.0001332622953 
0.0002453546367 
0.0002790755053 
0.0002687114648 
0.0001452410959 
0.0003295585039 
0.00145016847 
0.0001870630373 
0.0002601095619 
0.0001971267308 
0.0003926168917 
0.0002213947967 
0.0002166343612 
0.0003410843594 
0.001078935882 
0.000195324522 
0.0002427545934 
0.0002593786887 
0.0004519120328 
0.0002222427135 
0.0003378943133 
0.000195252138 
0.0002686974449 
0.0001685806115 
0.0011114606 
0.0002796721515 
0.0002142521844 
0.0002092223031 
0.001427780143 
0.0003477184737 
0.0002387217589 
0.000396987642 
0.0001282267745 
0.0005167469107 
0.0002171599812 
0.0006901016423 
0.0002358562747 
0.0002211090518 
0.000180200983 
0.0003298828866 
0.0002873825795 
0.0002203282868 
0.0001398985339 
0.0002336079107 
0.0002456477249 
0.0001576931769 
0.0001472210103 
0.0002605146365 
0.000245695826 
0.00679371662 
0.003539518969 
0.002757615969 
0.0001356981196 
0.0006455231677 
0.002509837855 
0.0002651165183 
0.001109942865 
0.000127580859 
0.0002082977705 
0.0002115400039 
0.0002623220147 
0.0001507904546 
0.0003601693464 
0.0004216035386 
0.0002539931729 
0.0003225820025 
0.0002800363618 
0.0002191119236 
0.0001866838996 
9.647960363e-05 
0.0001443395567 
0.0002641185432 
0.0001617084125 
0.0002005351423 
0.0002111458274 
0.0001780447259 
0.0002363857635 
0.0001727266413 
0.0001577114572 
0.0001851536027 
0.0001217660453 
0.0001582066576 
0.0003968774098 
0.0002876325582 
0.0003180190005 
0.0002217756601 
0.0002455047005 
0.0002094560012 
0.0002491905794 
0.0002166990389 
0.0002457717659 
0.0003303337054 
0.000138851748 
9.425474306e-05 
0.0002828748867 
0.0002705429748 
0.0001579594084 
0.0001606021342 
0.0001573455539 
0.0004718916373 
0.0003295309116 
9.688817134e-05 
0.0001052993706 
0.0003799035882 
0.0001244498716 
0.0001303713876 
0.0003436588799 
0.0001767526627 
0.0003901680855 
0.000273526299 
0.0001487687233 
0.0007674026581 
0.0001920052686 
0.0002529336376 
0.0002975490534 
0.0001999785312 
0.0002470675555 
0.0002283941243 
0.0001219126224 
0.0003073519462 
0.0002710252424 
0.0002195604906 
0.0002636419131 
0.0001820403348 
0.0002739077219 
0.0004373808644 
0.0002291871972 
0.0002379855635 
0.0002554189767 
0.0002380721884 
0.0001025046042 
0.0001635015306 
0.0001836445802 
0.0002448743519 
0.0001835345387 
0.000230384702 
0.0001915390543 
0.0002276134529 
0.0002723900823 
0.0001761896821 
0.0002666183697 
0.0002104881631 
0.0005234734734 
0.0002746372813 
0.0002120955577 
0.0001681236125 
0.0003431309379 
0.0004378928558 
0.0003293796657 
0.0001653409714 
0.0001689751043 
0.0001555444171 
0.0001875874559 
0.0002312884397 
0.0002179750375 
0.0002968162882 
0.000183282658 
0.0002887838354 
0.0001354435549 
0.0001212400442 
0.0001722523993 
0.0002736445816 
9.285321708e-05 
0.00037945556 
0.0002229643407 
0.0001045534316 
0.0003353375856 
0.0001578096364 
0.0002845223176 
0.0003762555565 
0.0002010088334 
0.000203707454 
0.0002348602677 
0.00047516088 
0.0007759700745 
0.0002074769777 
0.0005048620593 
8.360792533e-05 
0.0001450075278 
0.0002305172033 
0.0008043825567 
8.870505576e-05 
0.0002635771983 
0.0001361434797 
0.0001932093868 
0.0001843664442 
0.0002244374849 
0.0001872559063 
0.0001595721064 
0.0001749934309 
0.0002554826811 
0.0003785543772 
0.0002982536249 
0.000279478719 
0.0002557702837 
0.0003176077428 
0.0002374938017 
0.0002435325231 
0.0002331597009 
0.0001294274461 
0.000156271881 
0.0002080873555 
0.0002192028003 
0.0004063227813 
0.0002637962374 
0.00014651394 
0.0002497230772 
0.0002094175116 
0.0003622487069 
0.0001289267529 
0.0001276358355 
0.0003622965049 
0.0001256237856 
0.0003886322886 
0.0003025477645 
0.0002878132332 
0.0001232246792 
0.0002417686963 
0.0002040225797 
0.0003032759466 
0.0002614554657 
0.0002164391796 
0.0001811398594 
0.0002146969876 
0.0001758057601 
0.0002074480435 
0.0001247495 
0.0004853838423 
0.0001556622787 
0.0001871736957 
0.0001565440841 
0.0001483140434 
0.0002493252499 
0.0001915565467 
0.0001183124628 
0.0002383585384 
0.0003075721746 
0.0003744554208 
8.030758002e-05 
0.0003705776224 
0.0001259793373 
0.0001293807679 
0.0001271856741 
8.823606156e-05 
0.0003049117944 
0.0001772942039 
0.0001860128506 
0.000196278357 
0.0001641799224 
0.0002404800239 
0.0001659183288 
7.679340894e-05 
0.0002657199999 
0.0004894794306 
0.0003211319039 
0.0001907917741 
0.0002233934436 
0.0002878018987 
0.0002464934004 
0.0002420743809 
0.0002261612949 
0.0001729041015 
0.0001878845906 
0.0002983585767 
0.0002223486793 
0.0003036816684 
0.0001318079358 
0.0001381794975 
0.0002972332486 
0.0003204286336 
0.0002063233165 
0.0001375265168 
0.0002067587822 
0.0003701514124 
0.00017158264 
0.000137569021 
0.0001158743836 
0.0002981066034 
0.0002914036295 
0.0003196822032 
0.0004370381038 
0.0001610736436 
0.0002289025687 
0.000171672152 
0.0003121322523 
5.089922052e-05 
0.0002593390884 
0.0001182759855 
5.825747243e-05 
6.877137039e-05 
0.0002146618776 
0.000132649988 
0.0002879314079 
0.0001499654009 
0.000118998973 
0.0001186447046 
0.000250725269 
6.193167123e-05 
0.0003702423023 
0.0002112435239 
0.001141647555 
0.0001361952736 
0.000351987359 
0.0002511478803 
0.0002658497073 
0.0001642335109 
0.0002688384934 
0.00015709066 
0.0002567155605 
0.0001942336531 
0.0001592449767 
0.0004702183262 
0.000491112183 
0.0002189220135 
0.0003019424458 
0.0002146749544 
0.0004374805148 
0.0002187028169 
0.001035352785 
0.000365317448 
0.0003834853297 
0.0001352654318 
0.0002488895908 
0.0002824750182 
0.0002632276604 
0.0001306154837 
0.0003094510008 
0.0002663904063 
0.0001972324923 
0.0002854415561 
0.0001719762438 
0.000380499508 
0.0001217751195 
0.0003613967269 
0.0003078836633 
0.0002911683387 
0.0001449207597 
7.378569096e-05 
0.0002202428528 
0.0001340942301 
0.0001556734756 
0.001095400237 
0.0002523488302 
0.000221298292 
0.0002345542904 
0.000331609654 
0.0001996802516 
0.0003377616182 
0.0001264577574 
0.000256723806 
0.0003806953621 
0.0002427619118 
0.0001649128885 
0.0002899381551 
0.0002912583564 
0.000131714978 
0.0003464460773 
0.0004605042783 
0.0003470096369 
0.0001918660973 
0.0005224126162 
0.0001009651186 
0.0004651029351 
0.0002651599891 
0.0003209802252 
0.0002333249408 
0.0004709146668 
0.0003003186491 
0.0003505535968 
0.0001432827615 
0.0003635842964 
0.0003976675064 
0.0002220243669 
0.0002134071255 
0.000200238693 
0.0002784651901 
0.0002115923298 
0.0004368802201 
0.0002641862203 
0.0002876476562 
0.0003451818791 
0.0002424973974 
0.0002858368765 
9.137180514e-05 
0.0003078636082 
0.0003498685948 
9.244061108e-05 
0.0001577617773 
0.0002414208723 
0.0001634305233 
0.0001009511832 
0.0002663359342 
0.0001355052523 
0.0003105688038 
0.0002464366222 
0.0003860606446 
0.0003030574892 
0.0003597729665 
0.0004578080555 
0.0001713111632 
0.0002083346346 
0.0001709818093 
0.0001731410923 
0.0002631400688 
0.0001344728074 
0.0002155735415 
0.0001800379194 
0.000224338822 
0.0003348116166 
0.0002254929253 
0.0003877550423 
0.00053265994 
0.0001650750703 
0.0002163968564 
0.001780180379 
0.0001962031652 
0.0003830882154 
0.000333532424 
0.001379219486 
8.146363441e-05 
0.0001592638008 
9.975253345e-05 
0.0001188793217 
0.004340577095 
0.0002255936665 
0.0003561618826 
0.0001251905226 
0.0002735653025 
0.0002803605397 
0.0002861416977 
0.0002632576252 
0.0003506212165 
0.0002485371483 
0.0008322007961 
0.003114515871 
0.002864282815 
0.005432816236 
0.0009764558122 
0.00108440671 
0.003256360714 
0.0002403876316 
0.000157251166 
0.0002654211407 
0.0002691774761 
0.000405198902 
0.0002129961962 
0.0003391279439 
0.0003738957865 
0.0003275803872 
0.00106672528 
9.841799095e-05 
0.0004183811642 
0.0004006606427 
0.000220350095 
0.0002917638218 
0.0001922654647 
0.0001930283076 
0.0002575206254 
0.0002856616894 
0.000315647909 
7.788300056e-05 
0.0002641798864 
0.000223999901 
0.0001662817865 
0.0001566041899 
0.0002290315122 
0.002695472707 
0.004217177633 
0.00404364694 
0.002506875585 
0.002715626604 
0.001903716728 
0.001363707496 
0.0001652976897 
0.0002614194388 
0.000337076756 
0.0002469550198 
0.0002090120417 
0.0004093897838 
0.0001322516429 
0.0002441944135 
0.0003572041173 
0.0002362393146 
0.0002333182443 
0.0001607658337 
0.0003726950561 
0.0002239063205 
0.0002388919892 
0.0002968990001 
0.0002944999984 
0.0001725042274 
0.0001092835369 
0.0001280845927 
0.0003396804494 
0.0003084521716 
0.0002148663289 
0.0001408232971 
0.0003042203111 
0.0003206571271 
0.001457822582 
0.0002202787032 
0.0002648406077 
0.0002111164836 
0.0001815262954 
0.0001733184996 
0.0002862370525 
0.0004667653971 
0.0003665286053 
0.0001708450919 
0.0002058599102 
0.0003352007864 
0.0002107021618 
0.0002274717059 
0.0003374901388 
0.0004953497932 
0.0002541577572 
0.0001938043565 
0.000147209229 
0.00024730341 
0.0003397918548 
0.0003266067509 
0.001541113484 
0.002327164649 
0.001700121701 
0.003220566069 
0.001852157995 
0.001121786798 
0.0002255785101 
0.001886373298 
0.002229824837 
0.0001614288212 
0.0002031625238 
0.0001416936477 
0.0002317726534 
0.0001787472198 
0.0004982401275 
0.0003559584064 
0.0001519945115 
0.0001753055871 
0.0001946145745 
0.0004331662189 
0.0002051827403 
0.0001879888454 
0.0001513063572 
0.0002341303761 
0.0004066184624 
0.001032324335 
0.0003071236024 
0.0004727208208 
0.0003681157939 
0.0002414344715 
0.0002822969727 
0.0002222782872 
0.0001122466583 
0.0001675366757 
0.0001891860784 
0.0002108793693 
0.0002329002393 
0.0001952366967 
0.0003535448838 
0.0002473843566 
0.0002288764474 
0.0002937907143 
0.0003179984292 
0.0002129437911 
0.0003562837469 
0.0001750743655 
0.000157579485 
0.000128498961 
0.0003095627084 
0.0002553305263 
0.0002290269769 
0.0001029893707 
0.0001993497318 
0.0002621531884 
0.0003692103001 
0.0002349554646 
0.000230776047 
0.0001607451771 
0.0002932448482 
0.0002291968819 
0.0001559624481 
0.001486689979 
0.0002068622774 
0.0001901340309 
0.0001218836354 
0.0003829122567 
0.0002027329988 
0.000274094495 
0.0002808200575 
0.0002380086677 
0.0001525155622 
0.0002523320808 
0.0003802359662 
0.0002047197533 
0.0002068893589 
0.0002865735226 
0.0003230703383 
0.0001818790883 
0.0002204577991 
0.0001770027104 
0.0002377258906 
0.001649091066 
0.003899819614 
0.003010963993 
0.00152668251 
0.002400775536 
0.003378304333 
0.002455080059 
0.0002867404453 
0.0003765887194 
0.0001372196547 
0.0001468980797 
0.0001993059913 
0.0001309539436 
0.0001803501112 
0.0002856553274 
0.0001929520079 
6.267233873e-05 
0.0001323394987 
0.0002196485961 
0.0004004036605 
0.0001478622386 
0.0001666562529 
8.73680464e-05 
0.0002219156861 
9.284863048e-05 
0.0001234726247 
0.0003413441352 
0.0001761259443 
0.0001954697737 
0.0001449204932 
0.0002517605609 
0.0003318128595 
0.0001620023769 
0.0001752557983 
0.000229199183 
0.0002291136429 
0.0001541593538 
0.0001422827677 
0.0002991344295 
0.0002676760759 
0.0001884752269 
0.000307803813 
0.0002884396973 
7.067859603e-05 
0.0008841692279 
0.0002352201459 
0.0003240112074 
0.0002186603496 
0.00013976685 
6.112264283e-05 
0.0001944478341 
0.0002574238304 
0.0002566189913 
0.0001648469424 
0.0002593829937 
0.0002868690259 
0.000164047643 
0.0003422638384 
0.0002908728617 
0.0001379128956 
0.0001315618843 
0.0002461045535 
6.065576098e-05 
0.0003443368784 
0.0001052731259 
0.0002061993358 
0.0001877124551 
0.000133798799 
0.000136787359 
0.0001999632078 
0.0001324170392 
0.0002375472083 
0.0003069326802 
0.0002166076487 
0.0002697845972 
0.000252469846 
0.0001417378219 
0.0005469727346 
0.0002565729354 
0.0002949720021 
0.0002881311363 
0.0002527928276 
0.0002021356223 
0.0004171526987 
0.0004065818804 
5.342872536e-05 
0.0002290321827 
0.0001276384555 
0.0003591053639 
0.0001931729821 
0.000159775321 
0.0002359118804 
0.0002111576827 
0.0002909483086 
0.000424270331 
0.0002913932209 
0.0001943859371 
0.0002206047771 
0.0002232643535 
0.000262940012 
0.0001313108575 
0.0003726257685 
0.0001987906497 
0.0001003381146 
0.0002305272774 
0.0003215162825 
0.0002735767043 
0.000173030543 
9.654511921e-05 
0.0001600097147 
0.0002294380409 
0.0002055103748 
0.0002772012338 
0.0001379848299 
0.0002844819052 
0.0001368169424 
0.0002071281145 
0.0003596005036 
0.003808294988 
0.003273399469 
0.002523063621 
0.004382765676 
0.002074393326 
0.0008563007338 
0.001110423465 
0.000200826922 
0.0002295494799 
5.761232393e-05 
0.0001599688954 
0.0003106986987 
0.000107690558 
0.0001004139948 
0.0003514222089 
0.000278394676 
0.0002226099985 
0.000194864401 
0.0001988620591 
0.0001669850703 
0.0003628001255 
0.0002755137519 
0.0001591853696 
0.0002700075498 
0.000205019347 
0.0002365089479 
3.137519549e-05 
0.000302029191 
0.0002949607977 
0.0001089453911 
0.000372496966 
0.0001981986458 
0.0002430354875 
0.0002741964278 
0.0001045332643 
0.0001268577687 
0.0006525778355 
0.0002374437241 
0.000191076542 
0.0002399332773 
0.0002919324293 
0.0002483675274 
0.0004461178281 
0.001273420914 
0.003377346534 
0.001569357564 
0.003017741822 
0.002664310339 
0.002391274251 
0.0002824478277 
0.0001816641754 
0.0002116258664 
0.0004959355105 
9.84392764e-05 
0.0001951666544 
0.0001513166156 
0.0002679604327 
0.0002307597957 
0.0002581570264 
0.0001234025133 
0.0002490948791 
0.0002124736748 
0.0001825266966 
0.0005192694662 
0.0003410714542 
0.0001794071394 
0.000342477768 
0.0003578559717 
0.0002930453145 
0.0001222965182 
0.0002459160716 
0.0001307666917 
0.0002172879869 
0.0001324206959 
0.0001984331089 
0.0002010059258 
0.0002452697342 
0.0001739332308 
0.0002460192027 
0.0001128520733 
0.0001676013063 
0.0001595960814 
0.0004759582959 
0.0006129341401 
0.0003221612662 
0.0003784928777 
0.0001770108746 
0.0001432394203 
0.0002466731643 
0.000266725147 
0.0001162685289 
0.0001025744408 
5.986047466e-05 
0.0002039218076 
0.0001788031775 
0.0001697870175 
0.0002511448488 
0.0002331598673 
0.0001554090456 
0.0001619928784 
7.910232242e-05 
0.0001731944593 
0.0003165671583 
0.0004696518182 
0.0001822511883 
0.0001351883201 
0.0002450474632 
0.0004864996332 
0.0002808739866 
0.0001435990182 
0.0001363704783 
0.0002663556338 
0.0002658956239 
0.0001776943289 
0.0002246678989 
0.0002324290511 