# vtk DataFile Version 3.0
MOAB 4.9.0
ASCII
DATASET UNSTRUCTURED_GRID
POINTS 2114 double
1.5 -7.498798913e-33 1
1.252346839 -3.032876512e-17 0.9688487559
1.376173419 -0.2144739289 0.9688487559
1.623826581 -0.2144739289 0.9688487559
1.747653161 -1.099800967e-16 0.9688487559
1.623826581 0.2144739289 0.9688487559
1.376173419 0.2144739289 0.9688487559
1.5 -7.498798913e-33 -1
1.252346839 -3.032876512e-17 -0.9688487559
1.376173419 -0.2144739289 -0.9688487559
1.623826581 -0.2144739289 -0.9688487559
1.747653161 -1.099800967e-16 -0.9688487559
1.623826581 0.2144739289 -0.9688487559
1.376173419 0.2144739289 -0.9688487559
0.7446318206 -0.6524405591 -0.06115742304
0.6200673063 -0.473660466 0.0369353153
1.636562281 -0.9905220587 -0.01472395075
1.335691319 -0.9860081711 0.02811661049
2.426201917 -0.3767044779 -0.01561233504
2.27195705 -0.6350868241 0.02733201568
2.281757156 0.6233022835 -0.01870862048
2.434405653 0.3552955508 0.02551757888
1.386781616 0.9931161765 -0.03003094087
1.66150385 0.9844289684 0.06939821682
0.5497087632 0.3113454666 -0.003250497119
0.6387042334 0.5080189692 0.00929135653
0.7710875146 0.6841862694 0.02399452883
1.888360007 0.9195492565 -0.060047227
2.49395498 0.08979827832 -0.06316459505
2.073239089 -0.8170285531 -0.06213927687
1.084452761 -0.9071866278 -0.06582487895
1.152998607 0.9291838751 -0.1273081266
0.5098077851 -0.07165155772 -0.1199392842
0.9033166253 -0.7996611682 0.06716372868
1.89429705 -0.9159270548 0.07488301742
2.490527918 -0.1155808349 0.07413173799
2.083590521 0.8086971151 0.07369586145
0.5037399438 -0.07088292875 0.04941164647
1.109540145 0.9182607372 0.0658659242
1.656925768 0.9706171172 -0.1824190648
1.462265094 0.9589856684 -0.2809316013
1.28426422 0.9441733653 -0.2489874089
2.448003047 0.2508893232 -0.1958182053
2.363517902 0.4507957612 -0.2260973568
2.233355802 0.6259227441 -0.2653488019
2.094530481 0.7861004175 -0.1690551423
2.189091775 -0.6981083317 -0.194415233
2.318836801 -0.5286384043 -0.2237135015
2.404852716 -0.335980836 -0.2614544706
2.475246917 -0.148383916 -0.1639379897
1.245078547 -0.9468745912 -0.196070297
1.453670941 -0.9735788659 -0.2236019011
1.662049233 -0.951671657 -0.2608852304
1.858626377 -0.9190912426 -0.1632740327
0.541508312 -0.2629958627 -0.110122024
0.6478690046 -0.4754518861 -0.218673891
0.777678027 -0.6332396263 -0.2779542101
0.9026536408 -0.7816826226 -0.1793031083
0.9318824842 0.8148930944 -0.1148552695
0.7416933762 0.6219215947 -0.1954087878
0.6045773545 0.3788861575 -0.2338024073
0.5155812421 0.1225556101 -0.1260945339
0.7539951867 -0.6386633892 0.1886422378
0.6527122242 -0.4579347953 0.2690708982
0.5541553271 -0.2765515427 0.1699914672
1.732063776 -0.9504273977 0.2069641654
1.520483593 -0.9715230453 0.2360580327
1.309832075 -0.9426270144 0.2743910933
1.109748147 -0.9034476285 0.1774425919
2.439588825 -0.2733233983 0.2060756186
2.352738236 -0.4666335306 0.2347139714
2.224673483 -0.6329411811 0.2724588116
2.09283879 -0.7859317419 0.1756515483
2.201606509 0.6825145047 0.2047492558
2.32886789 0.5085659875 0.2331065352
2.41021855 0.3125977441 0.2716336531
2.477031531 0.1217240332 0.1749075376
1.269711347 0.9523693852 0.1998992004
1.476485907 0.9698929489 0.2423938016
1.682259572 0.9398385229 0.2889377087
1.876928216 0.9073510177 0.1861162283
0.5201807477 0.1413851637 0.1412956767
0.5941941736 0.365659976 0.2140294066
0.7331565029 0.5894716229 0.253917815
0.9047826853 0.7872049157 0.1613219421
1.880699275 0.8699866041 -0.3133550229
2.451364196 0.0528223827 -0.3035061146
2.020609086 -0.798323195 -0.3027313261
1.080334903 -0.8535525442 -0.3087543694
1.101937237 0.8587216008 -0.3227123313
0.5443032447 -0.06976026397 -0.2859671616
0.9384709394 -0.7632314989 0.3196291494
1.906333115 -0.8580179755 0.3141632587
2.446477091 -0.07630425715 0.3136220286
2.035737416 0.7830745784 0.3158791309
0.5477662592 -0.06357605771 0.2986787368
1.090452276 0.8593214711 0.3063286972
1.63007347 0.88321297 -0.4505726823
1.333600156 0.8708830946 -0.4624648393
2.374652742 0.2657304839 -0.4054255672
2.23591438 0.4853087475 -0.472128632
2.075750463 0.7068229829 -0.4109898724
2.165808355 -0.6271930132 -0.4041387866
2.285925885 -0.4020494898 -0.4697623986
2.398938669 -0.167274539 -0.404880845
1.295226314 -0.8907553839 -0.4057370869
1.546629249 -0.8815461703 -0.4697893814
1.804851944 -0.8622084298 -0.4045514994
0.6186377275 -0.2806324199 -0.3800605077
0.7658878531 -0.4902572273 -0.4698161416
0.919026423 -0.7014865637 -0.4127787589
0.9077358452 0.713541808 -0.37427431
0.7575770816 0.5169690616 -0.4260882532
0.6749620068 0.3243322317 -0.4627320101
0.5868231276 0.1486423884 -0.3794910277
0.7988629731 -0.5542471013 0.4485722018
0.6498564272 -0.2880629704 0.4407670935
1.687090033 -0.8906873007 0.4143349513
1.434752067 -0.8750721071 0.4795743055
1.168946034 -0.8462686598 0.4174118194
2.365662277 -0.2822370147 0.4134865052
2.227523233 -0.4921387097 0.4780266062
2.075584723 -0.7051569249 0.4140723827
2.176462114 0.6097057273 0.4131076546
2.289884453 0.3846522838 0.4776245091
2.398534676 0.1465195439 0.4137238922
1.308565882 0.8904261204 0.4129095574
1.559965658 0.87390225 0.4823888237
1.820759642 0.8491534848 0.4195850469
0.5920584388 0.1707690716 0.3827271163
0.6896006614 0.3880114577 0.438976105
0.8133716189 0.5486106788 0.4770406579
0.9207990246 0.709794092 0.4008972151
1.866128922 0.758684851 -0.5388384813
2.34880367 0.04335428854 -0.5269276382
1.961588015 -0.7139424549 -0.5265193974
1.120559827 -0.7583022693 -0.5300969946
1.105908799 0.7485084296 -0.5333172191
0.643208942 -0.0571090812 -0.5124915959
1.02362892 -0.6924758652 0.5418004891
1.870903083 -0.7597293175 0.5340807682
2.343585177 -0.0582108933 0.5338310047
1.97177649 0.7010167531 0.534791974
0.6503019078 -0.0280641899 0.5265221299
1.125453489 0.7614909637 0.5290051259
1.685393676 0.7448079047 -0.6410073089
1.485071938 0.766981197 -0.6414959052
1.285539884 0.7356531061 -0.6425117634
2.250009992 0.2484658262 -0.6129842948
2.125485446 0.4028535614 -0.6681893185
2.030567609 0.582019581 -0.6162395798
2.089491746 -0.5269055393 -0.61226631
2.161808912 -0.3426321055 -0.666792475
2.270857654 -0.1748391199 -0.6125436797
1.341814155 -0.773898483 -0.6132359876
1.535224251 -0.7443080862 -0.6669068338
1.734370026 -0.7549017485 -0.6125308489
0.745231951 -0.2558018597 -0.6040617524
0.8741454315 -0.4059387338 -0.6659728249
0.9691834262 -0.5830823546 -0.6150192946
0.9413992606 0.5770541415 -0.5957967201
0.8186625369 0.3735806838 -0.6294574919
0.7168256731 0.1595271536 -0.6009900672
0.9448644588 -0.5304145099 0.6406910164
0.8224632041 -0.3690340648 0.6362057444
0.748781303 -0.180350507 0.6349363463
1.649452024 -0.7717806065 0.6180766846
1.457652957 -0.7395225024 0.671798479
1.256040539 -0.7455914648 0.6201428456
2.243648145 -0.2560145691 0.6176115092
2.120107609 -0.4065360053 0.6709657441
2.026076863 -0.5842905966 0.6179382114
2.093431373 0.5162340507 0.6175286311
2.162129991 0.3339454318 0.6708683352
2.269084228 0.1637224326 0.6178223175
1.347068076 0.7715563572 0.6175051531
1.540541433 0.739076841 0.6724000411
1.742257191 0.7467742685 0.6193865072
0.7240471153 0.1965751765 0.5993791127
0.8405704654 0.3996532059 0.6367338564
0.9741626096 0.5907417062 0.6119797998
1.822612061 0.6042219836 -0.7285857896
2.190618568 0.03019336864 -0.7225886475
1.871498753 -0.5830633677 -0.7225135192
1.183839123 -0.6133525463 -0.7237685773
1.150602449 0.5946654666 -0.7240817177
0.8019477828 -0.03376042412 -0.7152505406
1.135750879 -0.5784217503 0.7298978398
1.813394027 -0.6127264307 0.7255001756
2.187349281 -0.03492272569 0.7254869872
1.873727344 0.5778112625 0.7255770239
0.8084696617 0.004500507469 0.7223333972
1.182944959 0.6134657439 0.7232813298
1.60139607 0.6083422354 -0.7871712403
1.376506764 0.6045635011 -0.7869259138
2.075872475 0.224839797 -0.7860139679
1.951233375 0.4200864386 -0.7873473345
1.983271179 -0.3859841882 -0.785789523
2.091368992 -0.1789252452 -0.7863004974
1.408617738 -0.6112655823 -0.7861320946
1.640865554 -0.6015359834 -0.7863277666
0.9221286977 -0.2267237052 -0.784003265
1.050447885 -0.4236189114 -0.7864158655
1.015546691 0.4061761182 -0.7748070422
0.8964661628 0.1891258681 -0.7745826704
1.021107272 -0.3902979692 0.7863391444
0.9117956329 -0.1949998212 0.7848507452
1.58955269 -0.6091353364 0.7879939451
1.359948722 -0.5984104535 0.788853959
2.072045693 -0.2276892451 0.7879856171
1.946872125 -0.4229557681 0.7882979906
1.983125012 0.3815801507 0.7880271644
2.089712867 0.1755277087 0.7883075275
1.408992386 0.6089848233 0.7879435888
1.642267352 0.5983615924 0.7884943915
0.9099304493 0.2124950653 0.7788862385
1.037914233 0.4209483053 0.78056343
1.732784774 0.424738442 -0.8748762798
1.986182972 0.01488810106 -0.8737302
1.756160309 -0.4134614252 -0.8737456986
1.270723107 -0.4282351336 -0.8740976928
1.248208081 0.4198431136 -0.871970521
1.007365416 -0.01293630405 -0.8701401141
1.248165767 -0.4134598439 0.8750031294
1.728619511 -0.4278188061 0.8744736637
1.984715833 -0.01608524236 0.874523771
1.756001185 0.411723895 0.874612387
1.011121085 0.005550147269 0.8723339969
1.266486463 0.4267614247 0.8736968093
1.495013479 0.4240895086 -0.90560655
1.86211117 0.2201286483 -0.9057697715
1.872035358 -0.2028270614 -0.9057874339
1.510445369 -0.4235802816 -0.9057983436
1.137047036 -0.2208712782 -0.9052519121
1.123941368 0.2096885469 -0.90255782
1.129598871 -0.2077663498 0.9053375874
1.490165938 -0.423410503 0.9058845606
1.861048531 -0.2206491372 0.9060672803
1.871614203 0.2023393926 0.9060693428
1.509600908 0.4227765507 0.9061831
1.131597797 0.2175363288 0.9038571583
1.18574357 -0.7719435692 -0.0638358742
1.951320052 0.6726357937 0.05101599917
2.091162682 0.5248763561 0.0003406360338
1.811609507 0.4773795307 0.1987048537
2.078149319 0.5109558105 0.2963419557
1.848157763 0.5934592485 -0.04785076156
1.771394491 0.7986475825 0.06774383038
1.910336018 0.6623812914 0.3295758367
1.085135579 -0.09691599756 0.2371160537
1.210880041 0.08918064088 0.2980142832
1.21477592 -0.108314909 0.4506467879
1.373057723 -0.0615134947 0.2493976653
1.04093504 -0.1224520653 0.4523729682
[...]
CELL_DATA 9467
SCALARS TALLY_TAG double 1
LOOKUP_TABLE default
0.06621246813 
0.05537844715 
0.07498112341 
0.06582793092 
0.06178854982 
0.06718806797 
0.06460669188 
0.07119491664 
0.03494906657 
0.03041615506 
0.02835936675 
0.03135513698 
0.03237389574 
0.02708787297 
0.03244972153 
0.02566733944 
0.02291667701 
0.02469848346 
0.02236711497 
0.02455502109 
0.07018334296 
0.05435103725 
0.05643925789 
0.07255162574 
0.02017577707 
0.02143804427 
0.02092784929 
0.03700168598 
0.03992588637 
0.03237986434 
0.03786893767 
0.04306349403 
0.04692628136 
0.03565589921 
0.03061939591 
0.02317900652 
0.01673470723 
0.02974642967 
0.02623404368 
0.02668334361 
0.05151326786 
0.09505884121 
0.09404649215 
0.0369238479 
0.038241675 
0.03254920286 
0.04061286131 
0.03895024513 
0.03684777626 
0.03612261804 
0.03935099617 
0.03642320903 
0.04438930951 
0.02550121897 
0.04786190089 
0.04304512327 
0.05518057034 
0.06689323908 
0.06804017383 
0.06890748383 
0.05421411357 
0.0608210363 
0.04703985718 
0.01661952207 
0.03739475369 
0.05464146754 
0.05811415573 
0.04924174603 
0.0521910637 
0.02569948746 
0.04044295054 
0.06842256219 
0.06509288199 
0.08235037372 
0.02789261022 
0.03434532925 
0.02262679401 
0.03108860624 
0.03711471723 
0.03097294637 
0.03483630282 
0.03397972735 
0.03197302069 
0.02403758569 
0.02464496914 
0.02880117724 
0.02589611671 
0.02661362732 
0.03374278908 
0.03059960856 
0.02979076557 
0.03367838485 
0.03014917809 
0.04191212873 
0.02790347553 
0.03888776189 
0.04107276427 
0.04867124461 
0.03827670639 
0.04196125487 
0.04928808046 
0.03985613204 
0.04227379738 
0.06069794673 
0.0573270522 
0.03689210858 
0.02374941864 
0.03080539886 
0.06302655937 
0.05564548114 
0.06090917955 
0.03350681055 
0.03444307895 
0.02247208172 
0.01908897333 
0.01879013676 
0.01797798309 
0.02109621807 
0.02166663216 
0.02387033996 
0.02290428991 
0.02461929875 
0.02383332601 
0.02625879324 
0.02923746649 
0.05894142446 
0.07753477592 
0.05376396138 
0.05275716549 
0.05999347004 
0.08615559676 
0.0646124066 
0.08344458617 
0.0336589837 
0.02585255639 
0.02552270024 
0.02873998288 
0.02729241449 
0.04384002173 
0.02657551715 
0.03025039808 
0.04363919293 
0.02806339271 
0.02757979693 
0.03303078128 
0.02786185117 
0.03053493133 
0.03019302446 
0.02847373332 
0.02751113741 
0.0890102673 
0.1093063463 
0.0957011289 
0.1065091397 
0.1530021724 
0.165549377 
0.1158196591 
0.1917804562 
0.03180273372 
0.03192105274 
0.02816534221 
0.02374933655 
0.02482886973 
0.01877273965 
0.02181243174 
0.01923586834 
0.0183298889 
0.01644735094 
0.01725788933 
0.01924212442 
0.1403725042 
0.03081858468 
0.1456804392 
0.1795411798 
0.1606768294 
0.1495040445 
0.2043410117 
0.1985474402 
0.1327128674 
0.1841855183 
0.1200204671 
0.19971941 
0.2132239088 
0.01532290512 
0.02608189494 
0.02935831485 
0.02745598538 
0.02821276088 
0.03693644559 
0.0325298961 
0.08978655135 
0.09018238278 
0.09017395751 
0.1044836835 
0.1285792227 
0.01740017733 
0.01451203918 
0.01726523911 
0.01617897077 
0.01645727081 
0.02040989573 
0.02406472965 
0.01939766406 
0.05226035403 
0.0193704784 
0.0689565904 
0.03967254546 
0.01958031012 
0.01895419228 
0.02524116257 
0.05240596889 
0.02794706136 
0.03019979608 
0.03222698028 
0.02601133537 
0.02716115224 
0.03548638393 
0.02780433364 
0.02739068907 
0.03943374752 
0.03745588706 
0.04269228903 
0.03099486205 
0.02755512018 
0.02801613484 
0.03530178073 
0.02846079494 
0.03710585279 
0.03012293862 
0.03054879141 
0.04294894142 
0.06554715199 
0.0793586015 
0.07103150324 
0.05954180425 
0.06050084835 
0.06855414105 
0.09125934206 
0.09212883506 
0.1014015359 
0.01912677541 
0.1061041143 
0.02261461312 
0.02469541265 
0.02330901301 
0.0205805254 
0.0181465488 
0.05033526436 
0.02852622172 
0.02931506564 
0.04758877471 
0.05053047562 
0.03276715329 
0.03497987736 
0.03575950189 
0.027077527 
0.04108236923 
0.03411773774 
0.02707707963 
0.02854380261 
0.02388347876 
0.02347977901 
0.024970587 
0.02305154755 
0.02260947685 
0.01889003857 
0.0182806304 
0.02163668322 
0.01760574314 
0.01883720614 
0.03660401519 
0.0203377339 
0.0155667657 
0.01724872044 
0.01647674558 
0.01487805924 
0.01958828419 
0.01567595735 
0.0191078588 
0.04379152268 
0.03809904311 
0.04799072019 
0.05555584272 
0.04561880488 
0.04609440283 
0.04115696502 
0.08908019506 
0.06502426751 
0.04488525675 
0.07606929164 
0.05333442588 
0.07657275448 
0.02068981252 
0.07627461218 
0.07370609582 
0.07072591921 
0.07805624782 
0.04228479625 
0.03827876935 
0.04097694184 
0.04369859606 
0.0483657807 
0.0553319628 
0.07890260203 
0.04881599978 
0.03074535729 
0.0394554153 
0.03616541558 
0.03942528699 
0.04937612935 
0.01962870686 
0.02162758185 
0.06262913342 
0.02472895658 
0.02610818045 
0.02376079806 
0.1340618372 
0.08481054647 
0.03860838242 
0.1061152608 
0.07438037017 
0.08395369018 
0.1093893384 
0.09309990823 
0.04928307769 
0.03901443607 
0.0501022364 
0.02739670962 
0.02966233379 
0.02151136147 
0.02700920839 
0.0252050113 
0.02388609193 
0.02668346818 
0.04000017098 
0.05553679501 
0.05468423745 
0.03515787648 
0.05320658906 
0.07752635947 
0.09709998702 
0.07351131551 
0.06435797508 
0.08697732276 
0.1057214439 
0.06913232312 
0.05605581015 
0.08407787844 
0.2265693294 
0.07653296887 
0.07384952098 
0.0322549798 
0.04989268856 
0.03947931534 
0.02814745205 
0.03838568614 
0.04095042479 
0.06212415935 
0.05557775942 
0.05265961707 
0.04138704201 
0.04601805474 
0.05214009334 
0.06259276471 
0.1831435217 
0.04628818978 
0.04732465796 
0.05011366586 
0.05296864592 
0.121380845 
0.1219298603 
0.1746054037 
0.0546577868 
0.08987353181 
0.1072417472 
0.1298588398 
0.05163588057 
0.1339425585 
0.116760242 
0.05379928011 
0.0481577739 
0.0269036735 
0.04535458917 
0.02943438872 
0.02862651644 
0.03452350525 
0.03542900537 
0.02626865512 
0.02330922696 
0.03341622497 
0.02758985965 
0.02052177823 
0.02411754548 
0.2036140875 
0.02171938481 
0.02138782062 
0.02002944329 
0.01966096381 
0.02353512269 
0.01980902324 
0.01964230069 
0.06213632244 
0.04594985472 
0.05092960565 
0.1918415342 
0.1074275927 
0.1097699244 
0.1345268963 
0.02457607069 
0.01826228381 
0.01518441264 
0.01487869556 
0.01780595688 
0.01576315797 
0.0180233965 
0.06770291934 
0.07484512204 
0.0609826088 
0.02861460505 
0.04545966248 
0.0442670484 
0.09452390049 
0.06408199297 
0.01842822114 
0.01850436201 
0.01955617445 
0.02106763473 
0.02579040669 
0.02022311632 
0.02238566416 
0.01889431518 
0.02367309191 
0.01929917187 
0.01926726715 
0.02075634647 
0.07030001305 
0.05259146221 
0.0519267098 
0.04376509358 
0.05753661765 
0.0416782959 
0.1301799391 
0.05861489591 
0.07259417008 
0.01940133561 
0.01954896886 
0.0167744542 
0.0193719003 
0.01652100709 
0.02135516739 
0.0311788523 
0.03416087767 
0.03533105954 
0.02215629506 
0.03147807031 
0.02252430491 
0.04590963674 
0.05002364533 
0.0385511396 
0.03890524952 
0.1056828142 
0.03173224991 
0.0351269463 
0.03546281301 
0.02956445865 
0.02841711843 
0.02797087686 
0.06834839806 
0.03785128551 
0.02073596361 
0.02398501074 
0.01927502004 
0.02213045785 
0.02133137005 
0.150814964 
0.03896133292 
0.02426432379 
0.02796060238 
0.02883047666 
0.02162427635 
0.0377683464 
0.02403193126 
0.02809521777 
0.02360369865 
0.02274342483 
0.02260357013 
0.02231836707 
0.06513694878 
0.02382251742 
0.02539034936 
0.06191583436 
0.0341943991 
0.05905418022 
0.03331640452 
0.06647555864 
0.074731937 
0.07409723708 
0.05094169404 
0.06827248272 
0.0639809652 
0.1465789554 
0.05647701205 
0.03750068052 
0.03112265974 
0.05824591222 
0.04668727007 
0.03336372281 
0.04517823847 
0.0526144035 
0.03271145246 
0.03363534211 
0.02880621128 
0.02053333448 
0.03880649785 
0.0300858194 
0.0303123691 
0.02705765914 
0.02404540744 
0.02265956725 
0.02632641732 
0.0225519298 
0.01868145668 
0.01814624597 
0.03142624091 
0.03315672282 
0.0329466227 
0.01768589849 
0.04019383646 
0.03915116596 
0.04281426886 
0.0337918965 
0.03192174862 
0.03214365514 
0.02116473832 
0.02145630543 
0.0152195889 
0.01609595356 
0.01818371686 
0.01371133443 
0.1518141499 
0.01984969651 
0.0201600368 
0.02825585022 
0.02447464729 
0.01934800136 
0.02214843769 
0.01652313368 
0.02168401945 
0.0173276998 
0.02393825235 
0.03077310055 
0.02082046542 
0.02685129569 
0.02254633396 
0.03423887535 
0.01918852547 
0.02218730238 
0.03216020777 
0.04284888508 
0.02658092541 
0.02136457917 
0.02102933662 
0.02272024592 
0.02865650965 
0.02705630916 
0.04163824258 
0.02130457458 
0.02172789525 
0.03964101624 
0.02048407006 
0.02199661901 
0.02239177547 
0.02169665793 
0.09590056384 
0.02197572757 
0.02729391645 
0.02793255196 
0.06208675875 
0.08166627287 
0.06435320535 
0.04360567906 
0.04126865697 
0.04891289425 
0.04362450555 
0.05027083608 
0.03930879552 
0.04467499489 
0.05057140656 
0.04457714044 
0.0278101943 
0.02973889905 
0.02859636651 
0.03029067923 
0.02712540546 
0.03548176607 
0.01797315894 
0.01971340011 
0.01732992959 
0.01812138075 
0.01574647102 
0.02532868198 
0.01979583041 
0.03261365616 
0.02936218987 
0.03730669309 
0.02725338093 
0.02991567569 
0.01551263589 
0.04015916217 
0.0360000561 
0.02061382455 
0.01844585327 
0.01904114841 
0.01592847291 
0.01631803364 
0.08885076736 
0.04738865342 
0.09452385365 
0.08016792805 
0.05179436498 
0.02111307254 
0.03296325896 
0.04786648944 
0.02418630826 
0.02716777178 
0.02463315035 
0.02476285127 
0.02131769478 
0.01557421203 
0.04188087998 
0.04462105509 
0.04455769959 
0.03714584374 
0.0463377578 
0.05110029929 
0.03280241053 
0.02019514385 
0.03103696867 
0.03550752722 
0.02630747856 
0.03195902519 
0.03512370843 
0.02199306459 
0.0264878403 
0.02145568504 
0.03452725437 
0.02166823306 
0.03183260075 
0.03270383991 
0.05358582042 
0.06232144631 
0.08301726518 
0.1027260827 
0.05294884014 
0.06803991564 
0.01554297162 
0.01673325619 
0.02309879553 
0.01890094813 
0.02084129918 
0.01526424454 
0.01733844434 
0.01643826715 
0.01583675011 
0.0201617777 
0.01983337169 
0.05383281241 
0.01815926865 
0.02104044432 
0.01825804985 
0.01785488457 
0.02074571241 
0.01664272312 
0.01992376493 
0.02029613142 
0.01712502628 
0.01576490179 
0.01571728156 
0.02106427207 
0.04310349692 
0.01646460961 
0.01787822199 
0.01657178791 
0.01650825112 
0.0186217105 
0.02043489218 
0.01959678302 
0.02263996052 
0.02422911275 
0.01994234117 
0.02103445034 
0.02235024526 
0.03535565844 
0.01872335086 
0.0174550846 
0.01887207763 
0.02980997162 
0.02617933539 
0.02222961994 
0.02128352463 
0.02324299329 
0.02324245066 
0.03047621418 
0.02215800686 
0.02060565849 
0.03514331543 
0.03191264587 
0.02136125033 
0.02241695795 
0.02144678699 
0.01501911509 
0.02102754797 
0.01478274348 
0.0176318111 
0.01907183135 
0.01828563803 
0.04220603642 
0.01677330775 
0.0186422661 
0.01747334987 
0.02175748627 
0.01682145347 
0.0858140663 
0.04005668085 
0.03862115847 
0.0480734564 
0.03060446364 
0.03692472722 
0.03444960029 
0.0353646747 
0.03588980644 
0.04129458219 
0.02292573332 
0.02074966481 
0.01938870211 
0.01933316571 
0.02123356306 
0.02579700134 
0.02147875092 
0.02171797026 
0.02576987972 
0.04955517863 
0.04474006686 
0.05129196264 
0.04597044903 
0.03870320854 
0.03496131275 
0.03570687034 
0.03349485929 
0.02906156241 
0.0302969579 
0.03778974625 
0.0320877135 
0.1027431409 
0.03780068741 
0.06003415125 
0.08382996302 
0.06484529978 
0.07167919094 
0.01930586499 
0.01584961566 
0.01759569553 
0.1003351735 
0.03116632235 
0.01651580201 
0.04650086301 
0.1055737913 
0.1383711197 
0.04856254783 
0.06113203615 
0.03095708286 
0.03634648561 
0.04024110995 
0.03760208922 
0.05263865318 
0.02941872889 
0.02948722363 
0.03885259068 
0.03532023355 
0.04109831958 
0.03681254916 
0.01550969309 
0.1117454754 
0.09663751941 
0.08823111176 
0.1001936995 
0.08967132449 
0.08581467171 
0.09107081705 
0.0644170694 
0.01612857733 
0.04621950738 
0.06404370146 
0.07721517331 
0.0715219031 
0.06297682874 
0.04256349179 
0.02728444001 
0.03162937986 
0.02943400451 
0.03176806549 
0.02815869067 
0.02381456809 
0.0240367303 
0.02941586681 
0.02993453645 
0.03905916681 
0.02993021943 
0.035168375 
0.0489172772 
0.06916885463 
0.01463462009 
0.07303482125 
0.05254431563 
0.06877234556 
0.08392840246 
0.05004020034 
0.1080037822 
0.08519154604 
0.1361046041 
0.02248614174 
0.06335769682 
0.1026499804 
0.05639583814 
0.03651182627 
0.03757831909 
0.0588467718 
0.1036575151 
0.03035893728 
0.02969210175 
0.0255610098 
0.0253789847 
0.02372230674 
0.02708704211 
0.02267036579 
0.01373575733 
0.0568386706 
0.1064268589 
0.07765108557 
0.047442437 
0.0682305777 
0.04577500304 
0.06023206918 
0.04311745046 
0.03823608885 
0.05175305967 
0.04972741658 
0.04092542853 
0.1570066671 
0.2205546387 
0.1185791685 
0.1169715546 
0.1455989194 
0.1072203138 
0.1056255972 
0.09491201601 
0.1361375364 
0.06629629657 
0.08738037218 
0.0817500059 
0.1081203829 
0.121388135 
0.1292248956 
0.04248899149 
0.04482144121 
0.05455557595 
0.02340017457 
0.02737151734 
0.0297974515 
0.024424462 
0.05253296457 
0.03091794002 
0.0228293191 
0.02709447535 
0.02363513883 
0.02252979713 
0.02496885672 
0.02522897492 
0.04025811502 
0.04857631351 
0.05351700973 
0.07500837676 
0.07188669991 
0.07104885114 
0.06442083773 
0.02405991675 
0.02462224387 
0.01735931654 
0.01796176734 
0.08896686218 
0.02192393135 
0.02135921078 
0.02636050477 
0.01592595566 
0.02782146809 
0.05745330741 
0.03113312136 
0.02914293746 
0.02499676042 
0.0296960394 
0.03027069507 
0.0268554627 
0.02706074317 
0.01459735892 
0.0346150779 
0.03501912595 
0.03770252055 
0.04063297213 
0.03465580758 
0.08111504359 
0.08469490358 
0.0136244858 
0.05430839345 
0.07725310487 
0.05003573938 
0.07722549505 
0.05733296991 
0.04580012226 
0.03606262224 
0.04285524311 
0.04135966631 
0.04202034582 
0.03600222764 
0.07134057691 
0.03825807467 
0.04335566839 
0.04476034468 
0.07624154206 
0.07606988883 
0.06876325685 
0.07218205544 
0.115648009 
0.1015955842 
0.07970414541 
0.07347429792 
0.06663346746 
0.02228147166 
0.0184108642 
0.01507807208 
0.01880265826 
0.01723421463 
0.01589397325 
0.03482779614 
0.033280151 
0.03804235015 
0.04882583388 
0.04512567448 
0.02794862656 
0.02409985365 
0.04914718401 
0.04684468846 
0.04743630595 
0.04029353764 
0.03851654793 
0.01901825113 
0.03460164788 
0.03117765501 
0.04012698251 
0.01967730429 
0.04481024887 
0.08377870961 
0.0555936557 
0.1436998693 
0.08511151766 
0.06158676524 
0.06360919372 
0.03246629439 
0.02426536447 
0.03075451574 
0.03690322188 
0.02956057572 
0.03726086171 
0.03142157658 
0.02603898113 
0.01937187151 
0.01933520859 
0.03070523694 
0.01902529732 
0.02004955649 
0.01598868277 
0.01606965326 
0.01737179377 
0.01548486219 
0.01839127989 
0.02901891453 
0.03756497832 
0.02512978241 
0.0280604131 
0.02355166791 
0.02376816766 
0.02518698272 
0.02409269804 
0.03006988108 
0.02220028957 
0.02870284601 
0.06257434296 
0.02483283002 
0.02551613246 
0.02828412355 
0.02149264702 
0.04104767982 
0.02341810682 
0.02117575207 
0.01814154551 
0.01807771206 
0.02132336008 
0.02034003044 
0.03032554851 
0.02197168294 
0.02682707066 
0.04983812781 
0.02376035462 
0.02782986923 
0.03803104203 
0.07843980573 
0.03506556346 
0.02205617568 
0.0313639575 
0.03160872686 
0.03210409306 
0.042278816 
0.06953561811 
0.04723692832 
0.05448821098 
0.04038564098 
0.04411082376 
0.04204749714 
0.04772329486 
0.02322442664 
0.02174010424 
0.01858114225 
0.02138943943 
0.02034372121 
0.02706309489 
0.0992711767 
0.05739623028 
0.05658624846 
0.03683252872 
0.02476993096 
0.04792020694 
0.03883732635 
0.05252043393 
0.1507351561 
0.08270668885 
0.02988875032 
0.02966483138 
0.03087225056 
0.02407636277 
0.01905827956 
0.0318735089 
0.02210103521 
0.01909797451 
0.02882384712 
0.02178988772 
0.02886601343 
0.02325460013 
0.05081385278 
0.04256063058 
0.03633469569 
0.03449370698 
0.04499605609 
0.04387007956 
0.1032921504 
0.03389582131 
0.03778665037 
0.06209310837 
0.04470551755 
0.02829180831 
0.04417876088 
0.03863593339 
0.0419369144 
0.03316411533 
0.03087656373 
0.03098157167 
0.02998744223 
0.03462548665 
0.03145724663 
0.0326469419 
0.0303309777 
0.03599553294 
0.03558005085 
0.03630846523 
0.04693136052 
0.1286110364 
0.01849733432 
0.02388156248 
0.02444806327 
0.01924718196 
0.02079864665 
0.01988657893 
0.01876787932 
0.03275683345 
0.02071532056 
0.02397485778 
0.02429812986 
0.02143238878 
0.03456018855 
0.03427390046 
0.0555900652 
0.03864222661 
0.03741150642 
0.03760056882 
0.0235899163 
0.02449797595 
0.03369316601 
0.01713111742 
0.03079685035 
0.02433660274 
0.04208215278 
0.0465807496 
0.01980609214 
0.02920835291 
0.02944723515 
0.04465332264 
0.02688345212 
0.0265644617 
0.02265382182 
0.02438635387 
0.05946820302 
0.0231420841 
0.02113874734 
0.02079186862 
0.01727413137 
0.01513687298 
0.01872050916 
0.02363660723 
0.02463660714 
0.05224165767 
0.02069539905 
0.02720654441 
0.01819844853 
0.01690123413 
0.0187477226 
0.02267384668 
0.02260913203 
0.06206521454 
0.02235289308 
0.02060501909 
0.03056565087 
0.02265122116 
0.019495947 
0.02153045879 
0.05456099276 
0.01976129115 
0.02120434203 
0.02742965394 
0.01971527139 
0.01609017774 
0.02132159106 
0.02018309274 
0.02126370598 
0.01757759092 
0.02352767723 
0.02029997697 
0.02214151709 
0.0210073688 
0.02645791274 
0.01833565729 
0.02486125007 
0.02833918615 
0.0271184833 
0.0206920616 
0.02092259508 
0.01891700964 
0.01785753231 
0.01863810532 
0.01757948124 
0.01901079109 
0.02114585769 
0.01430519685 
0.02694188192 
0.01922250238 
0.01666613017 
0.05630739641 
0.02700535512 
0.02180315697 
0.01989071568 
0.05225980892 
0.02824151964 
0.03772750861 
0.03239925446 
0.02945869905 
0.06523772664 
0.07084978986 
0.02130567137 
0.03552026876 
0.02627735268 
0.03149853592 
0.02010610908 
0.1355315495 
0.03745044071 
0.0199720578 
0.02284741163 
0.02481752185 
0.02716561828 
0.02769921244 
0.05143824436 
0.02102392678 
0.02996675747 
0.0245175797 
0.03675906251 
0.03106196916 
0.02195161445 
0.01961721197 
0.08539641571 
0.1204649154 
0.06055147252 
0.06077058495 
0.05861425806 
0.06037348197 
0.08786228698 
0.07391027085 
0.06180672244 
0.06549609178 
0.07757548806 
0.06150624725 
0.01544978653 
0.01535490635 
0.01631601601 
0.01861132396 
0.01715858344 
0.01531572545 
0.01705921036 
0.01624546414 
0.02008888987 
0.02368216585 
0.02487251868 
0.02012105596 
0.06847735937 
0.01978684427 
0.03063187706 
0.02389367535 
0.02522425685 
0.02038532521 
0.0334796599 
0.02573292916 
0.01609099672 
0.01843709071 
0.02433226655 
0.01947193652 
0.04300747359 
0.03410831721 
0.05427183592 
0.04496628295 
0.03080098791 
0.04278465029 
0.04190571049 
0.03982292327 
0.1048232821 
0.03534691189 
0.03413133418 
0.01511357599 
0.03918866448 
0.04221999693 
0.03719977018 
0.08372349098 
0.1344836273 
0.03910596252 
0.027946033 
0.07122372831 
0.03146937872 
0.05796829807 
0.1144260465 
0.1189889584 
0.1277067186 
0.02319637877 
0.04047492885 
0.04230045209 
0.1395311531 
0.06461686646 
0.08464806013 
0.03788756174 
0.08552749466 
0.05560718352 
0.02881600472 
0.0729487599 
0.08385945235 
0.02386807526 
0.08045803647 
0.07013360176 
0.07142355027 
0.1141998751 
0.09785217164 
0.04530223609 
0.03361767523 
0.03105031354 
0.0382935082 
0.04796016868 
0.03525876394 
0.04723891254 
0.0413211966 
0.08225558922 
0.05385727921 
0.09225184154 
0.05307045159 
0.0428603999 
0.04985475066 
0.04267779992 
0.02060975133 
0.04181929631 
0.05189256139 
0.06315067038 
0.07624136561 
0.1722069719 
0.0667135684 
0.05231599795 
0.0445112409 
0.0438869331 
0.03604812864 
0.03339066454 
0.04102262167 
0.05963598562 
0.02007363434 
0.02297220321 
0.04706752952 
0.05920153957 
0.0242274323 
0.06670465911 
0.0453591666 
0.02845151 
0.05466760424 
0.01685946751 
0.05399607711 
0.06965271416 
0.0903516368 
0.1153492174 
0.04585776056 
0.03706513909 
0.05283236773 
0.03445878432 
0.04399034164 
0.03603212558 
0.05109127502 
0.03268992528 
0.08025799722 
0.03584202908 
0.03071068283 
0.03254249832 
0.03707619595 
0.1101953023 
0.0518922997 
0.05767319082 
0.05648956235 
0.2480301683 