# vtk DataFile Version 3.0
MOAB 4.9.0
ASCII
DATASET UNSTRUCTURED_GRID
POINTS 11245 double
0.856077969 -1.01774025 -60.9600182
0.856077969 0.182259783 -60.9600182
0.856077969 -1.01774025 60.9599991
0.856077969 0.182259783 60.9599991
0.431813896 -0.842004299 -60.9600182
0.256077975 -0.417740226 -60.9600182
0.431813896 0.00652385736 -60.9600182
1.28034198 0.00652385736 -60.9600182
1.45607793 -0.417740226 -60.9600182
1.28034198 -0.842004299 -60.9600182
0.856077969 -1.01774025 -60.4742813
0.856077969 -1.01774025 -59.9885445
0.856077969 -1.01774025 -59.5028076
0.856077969 -1.01774025 -59.0170708
0.856077969 -1.01774025 -58.5313339
0.856077969 -1.01774025 -58.0455971
0.856077969 -1.01774025 -57.5598602
0.856077969 -1.01774025 -57.0741234
0.856077969 -1.01774025 -56.5883865
0.856077969 -1.01774025 -56.1026497
0.856077969 -1.01774025 -55.6169128
0.856077969 -1.01774025 -55.131176
0.856077969 -1.01774025 -54.6454391
0.856077969 -1.01774025 -54.1596985
0.856077969 -1.01774025 -53.6739616
0.856077969 -1.01774025 -53.1882248
0.856077969 -1.01774025 -52.7024879
0.856077969 -1.01774025 -52.2167511
0.856077969 -1.01774025 -51.7310143
0.856077969 -1.01774025 -51.2452774
0.856077969 -1.01774025 -50.7595406
0.856077969 -1.01774025 -50.2738037
0.856077969 -1.01774025 -49.7880669
0.856077969 -1.01774025 -49.30233
0.856077969 -1.01774025 -48.8165932
0.856077969 -1.01774025 -48.3308563
0.856077969 -1.01774025 -47.8451157
0.856077969 -1.01774025 -47.3593788
0.856077969 -1.01774025 -46.873642
0.856077969 -1.01774025 -46.3879051
0.856077969 -1.01774025 -45.9021683
0.856077969 -1.01774025 -45.4164314
0.856077969 -1.01774025 -44.9306946
0.856077969 -1.01774025 -44.4449577
0.856077969 -1.01774025 -43.9592209
0.856077969 -1.01774025 -43.473484
0.856077969 -1.01774025 -42.9877472
0.856077969 -1.01774025 -42.5020103
0.856077969 -1.01774025 -42.0162735
0.856077969 -1.01774025 -41.5305328
0.856077969 -1.01774025 -41.044796
0.856077969 -1.01774025 -40.5590591
0.856077969 -1.01774025 -40.0733223
0.856077969 -1.01774025 -39.5875854
0.856077969 -1.01774025 -39.1018486
0.856077969 -1.01774025 -38.6161118
0.856077969 -1.01774025 -38.1303749
0.856077969 -1.01774025 -37.6446381
0.856077969 -1.01774025 -37.1589012
0.856077969 -1.01774025 -36.6731644
0.856077969 -1.01774025 -36.1874275
0.856077969 -1.01774025 -35.7016907
0.856077969 -1.01774025 -35.2159538
0.856077969 -1.01774025 -34.7302132
0.856077969 -1.01774025 -34.2444763
0.856077969 -1.01774025 -33.7587395
0.856077969 -1.01774025 -33.2730026
0.856077969 -1.01774025 -32.7872658
0.856077969 -1.01774025 -32.3015289
0.856077969 -1.01774025 -31.8157921
0.856077969 -1.01774025 -31.3300552
0.856077969 -1.01774025 -30.8443184
0.856077969 -1.01774025 -30.3585815
0.856077969 -1.01774025 -29.8728428
0.856077969 -1.01774025 -29.3871059
0.856077969 -1.01774025 -28.9013691
0.856077969 -1.01774025 -28.4156322
0.856077969 -1.01774025 -27.9298954
0.856077969 -1.01774025 -27.4441586
0.856077969 -1.01774025 -26.9584198
0.856077969 -1.01774025 -26.472683
0.856077969 -1.01774025 -25.9869461
0.856077969 -1.01774025 -25.5012093
0.856077969 -1.01774025 -25.0154724
0.856077969 -1.01774025 -24.5297356
0.856077969 -1.01774025 -24.0439987
0.856077969 -1.01774025 -23.55826
0.856077969 -1.01774025 -23.0725231
0.856077969 -1.01774025 -22.5867863
0.856077969 -1.01774025 -22.1010494
0.856077969 -1.01774025 -21.6153126
0.856077969 -1.01774025 -21.1295757
0.856077969 -1.01774025 -20.6438389
0.856077969 -1.01774025 -20.1581001
0.856077969 -1.01774025 -19.6723633
0.856077969 -1.01774025 -19.1866264
0.856077969 -1.01774025 -18.7008896
0.856077969 -1.01774025 -18.2151527
0.856077969 -1.01774025 -17.7294159
0.856077969 -1.01774025 -17.2436771
0.856077969 -1.01774025 -16.7579403
0.856077969 -1.01774025 -16.2722034
0.856077969 -1.01774025 -15.7864666
0.856077969 -1.01774025 -15.3007298
0.856077969 -1.01774025 -14.814992
0.856077969 -1.01774025 -14.3292551
0.856077969 -1.01774025 -13.8435183
0.856077969 -1.01774025 -13.3577814
0.856077969 -1.01774025 -12.8720436
0.856077969 -1.01774025 -12.3863068
0.856077969 -1.01774025 -11.9005699
0.856077969 -1.01774025 -11.4148321
0.856077969 -1.01774025 -10.9290953
0.856077969 -1.01774025 -10.4433584
0.856077969 -1.01774025 -9.95762062
0.856077969 -1.01774025 -9.47188377
0.856077969 -1.01774025 -8.98614693
0.856077969 -1.01774025 -8.50041008
0.856077969 -1.01774025 -8.01467228
0.856077969 -1.01774025 -7.52893543
0.856077969 -1.01774025 -7.04319811
0.856077969 -1.01774025 -6.55746126
0.856077969 -1.01774025 -6.07172394
0.856077969 -1.01774025 -5.58598709
0.856077969 -1.01774025 -5.10024977
0.856077969 -1.01774025 -4.61451244
0.856077969 -1.01774025 -4.1287756
0.856077969 -1.01774025 -3.64303827
0.856077969 -1.01774025 -3.15730119
0.856077969 -1.01774025 -2.6715641
0.856077969 -1.01774025 -2.18582702
0.856077969 -1.01774025 -1.70008981
0.856077969 -1.01774025 -1.21435273
0.856077969 -1.01774025 -0.728615582
0.856077969 -1.01774025 -0.242878437
0.856077969 -1.01774025 0.242858693
0.856077969 -1.01774025 0.728595853
0.856077969 -1.01774025 1.21433294
0.856077969 -1.01774025 1.70007014
0.856077969 -1.01774025 2.18580723
0.856077969 -1.01774025 2.67154431
0.856077969 -1.01774025 3.1572814
0.856077969 -1.01774025 3.64301872
0.856077969 -1.01774025 4.12875557
0.856077969 -1.01774025 4.61449289
0.856077969 -1.01774025 5.10023022
0.856077969 -1.01774025 5.58596706
0.856077969 -1.01774025 6.07170439
0.856077969 -1.01774025 6.55744123
0.856077969 -1.01774025 7.04317856
0.856077969 -1.01774025 7.52891588
0.856077969 -1.01774025 8.01465321
0.856077969 -1.01774025 8.50039005
0.856077969 -1.01774025 8.9861269
0.856077969 -1.01774025 9.47186375
0.856077969 -1.01774025 9.95760155
0.856077969 -1.01774025 10.4433384
0.856077969 -1.01774025 10.9290752
0.856077969 -1.01774025 11.414813
0.856077969 -1.01774025 11.9005499
0.856077969 -1.01774025 12.3862867
0.856077969 -1.01774025 12.8720245
0.856077969 -1.01774025 13.3577614
0.856077969 -1.01774025 13.8434982
0.856077969 -1.01774025 14.3292351
0.856077969 -1.01774025 14.8149729
0.856077969 -1.01774025 15.3007097
0.856077969 -1.01774025 15.7864466
0.856077969 -1.01774025 16.2721844
0.856077969 -1.01774025 16.7579212
0.856077969 -1.01774025 17.2436581
0.856077969 -1.01774025 17.7293949
0.856077969 -1.01774025 18.2151318
0.856077969 -1.01774025 18.7008705
0.856077969 -1.01774025 19.1866074
0.856077969 -1.01774025 19.6723442
0.856077969 -1.01774025 20.1580811
0.856077969 -1.01774025 20.6438179
0.856077969 -1.01774025 21.1295547
0.856077969 -1.01774025 21.6152916
0.856077969 -1.01774025 22.1010303
0.856077969 -1.01774025 22.5867672
0.856077969 -1.01774025 23.072504
0.856077969 -1.01774025 23.5582409
0.856077969 -1.01774025 24.0439777
0.856077969 -1.01774025 24.5297146
0.856077969 -1.01774025 25.0154533
0.856077969 -1.01774025 25.5011902
0.856077969 -1.01774025 25.986927
0.856077969 -1.01774025 26.4726639
0.856077969 -1.01774025 26.9584007
0.856077969 -1.01774025 27.4441376
0.856077969 -1.01774025 27.9298744
0.856077969 -1.01774025 28.4156132
0.856077969 -1.01774025 28.90135
0.856077969 -1.01774025 29.3870869
0.856077969 -1.01774025 29.8728237
0.856077969 -1.01774025 30.3585606
0.856077969 -1.01774025 30.8442974
0.856077969 -1.01774025 31.3300343
0.856077969 -1.01774025 31.815773
0.856077969 -1.01774025 32.3015099
0.856077969 -1.01774025 32.7872467
0.856077969 -1.01774025 33.2729836
0.856077969 -1.01774025 33.7587204
0.856077969 -1.01774025 34.2444572
0.856077969 -1.01774025 34.7301941
0.856077969 -1.01774025 35.2159309
0.856077969 -1.01774025 35.7016678
0.856077969 -1.01774025 36.1874046
0.856077969 -1.01774025 36.6731453
0.856077969 -1.01774025 37.1588821
0.856077969 -1.01774025 37.644619
0.856077969 -1.01774025 38.1303558
0.856077969 -1.01774025 38.6160927
0.856077969 -1.01774025 39.1018295
0.856077969 -1.01774025 39.5875664
0.856077969 -1.01774025 40.0733032
0.856077969 -1.01774025 40.5590401
0.856077969 -1.01774025 41.0447769
0.856077969 -1.01774025 41.5305138
0.856077969 -1.01774025 42.0162506
0.856077969 -1.01774025 42.5019875
0.856077969 -1.01774025 42.9877281
0.856077969 -1.01774025 43.473465
0.856077969 -1.01774025 43.9592018
0.856077969 -1.01774025 44.4449387
0.856077969 -1.01774025 44.9306755
0.856077969 -1.01774025 45.4164124
0.856077969 -1.01774025 45.9021492
0.856077969 -1.01774025 46.387886
0.856077969 -1.01774025 46.8736229
0.856077969 -1.01774025 47.3593597
0.856077969 -1.01774025 47.8450966
0.856077969 -1.01774025 48.3308334
0.856077969 -1.01774025 48.8165703
0.856077969 -1.01774025 49.3023109
0.856077969 -1.01774025 49.7880478
0.856077969 -1.01774025 50.2737846
0.856077969 -1.01774025 50.7595215
0.856077969 -1.01774025 51.2452583
0.856077969 -1.01774025 51.7309952
0.856077969 -1.01774025 52.216732
0.856077969 -1.01774025 52.7024689
0.856077969 -1.01774025 53.1882057
0.856077969 -1.01774025 53.6739426
0.856077969 -1.01774025 54.1596794
0.856077969 -1.01774025 54.6454163
0.856077969 -1.01774025 55.1311531
0.856077969 -1.01774025 55.61689
0.856077969 -1.01774025 56.1026306
0.856077969 -1.01774025 56.5883675
0.856077969 -1.01774025 57.0741043
0.856077969 -1.01774025 57.5598412
0.856077969 -1.01774025 58.045578
0.856077969 -1.01774025 58.5313148
0.856077969 -1.01774025 59.0170517
0.856077969 -1.01774025 59.5027885
0.856077969 -1.01774025 59.9885254
0.856077969 -1.01774025 60.4742622
0.431813896 -0.842004299 60.9599991
0.256077975 -0.417740226 60.9599991
0.431813896 0.00652385736 60.9599991
0.856077969 0.182259783 60.4742622
0.856077969 0.182259783 59.9885254
0.856077969 0.182259783 59.5027885
0.856077969 0.182259783 59.0170517
0.856077969 0.182259783 58.5313148
0.856077969 0.182259783 58.045578
0.856077969 0.182259783 57.5598412
0.856077969 0.182259783 57.0741043
0.856077969 0.182259783 56.5883675
0.856077969 0.182259783 56.1026306
0.856077969 0.182259783 55.61689
0.856077969 0.182259783 55.1311531
0.856077969 0.182259783 54.6454163
0.856077969 0.182259783 54.1596794
0.856077969 0.182259783 53.6739426
0.856077969 0.182259783 53.1882057
[...]
CELL_DATA 37829
SCALARS TALLY_TAG double 1
LOOKUP_TABLE default
0.0005882533199 
0.0004032446437 
0.0001739252336 
0.0004567885969 
0.0003587532195 
0.0005526830288 
0.0001118020154 
0.0003362256762 
0.0003722624299 
0.0001726575025 
0.0004653380909 
0.0002549876639 
0.0001596715705 
0.0003370801144 
0.0002708639997 
0.0002860675774 
0.000325498671 
0.0003445387744 
0.0005846214679 
0.0002765260798 
0.0004647350415 
0.0004724419128 
0.0007115472567 
0.0005015371869 
0.0002405472318 
0.000661542355 
0.0003843566293 
0.0005162047987 
0.0003969865202 
0.0004090640994 
0.0003949925423 
0.0002601312701 
0.0003863270949 
0.0002663415209 
0.0002950725204 
0.000463194565 
0.0004023822182 
0.000598727437 
0.0004259256077 
0.0005593205372 
0.0006373006178 
0.0005439330755 
0.0002933793822 
0.0004227110617 
0.000286553252 
0.0003163668764 
0.0003182161954 
0.0005603857578 
0.0004302863004 
0.0005116726921 
0.0002945248861 
0.0003486197804 
0.0006239991759 
0.0006075348519 
0.0002617595399 
0.0007791696082 
0.0006570711845 
0.0001601881928 
0.0003919306642 
0.000422576557 
0.0005593897141 
0.0003364128502 
0.0004819348482 
0.0001747295971 
0.0003087369063 
0.0003256592071 
0.0003180031813 
0.0003380771182 
0.000288185869 
0.0003774738047 
0.0001735900112 
0.0004173616373 
0.0002141674295 
0.0002363446939 
0.0002686438542 
0.0006638667739 
0.0003049174797 
0.0004429402012 
0.0003302822541 
0.0007316468939 
0.0004533184228 
0.0004457234961 
0.0003177725381 
0.0001627496501 
0.0003629737578 
0.0005132905826 
0.0001984669179 
0.0004156372715 
0.0001593899774 
0.0002850233417 
0.0003750140399 
0.0003603214112 
0.0004651024107 
0.0005873728334 
0.0007100851347 
0.000502687525 
0.0003740540046 
0.0006352071388 
0.0005171790029 
0.0003405277191 
0.0005185833127 
0.000705382601 
0.0005386051639 
0.00029175458 
0.0008478142398 
0.0003443382093 
0.0005494196589 
0.0002652654982 
0.0004140662743 
0.0002959288972 
0.0002519937185 
0.0002172471801 
0.0003188418228 
0.0002145756038 
0.0006892945451 
0.0005975607988 
0.0005212214063 
0.0005391753717 
0.0004299810003 
0.0004734986936 
0.0003395544382 
0.000397947564 
0.0003938020687 
0.000277024783 
0.0003799872585 
0.0002833617085 
0.0003216694327 
0.0003602079587 
0.0005303310316 
0.0002548519386 
0.0004056980188 
0.000367620387 
0.0003062494236 
0.0005635136223 
0.0004091468757 
0.0003215761488 
0.000240942539 
0.0003288954774 
0.000571176072 
0.0007200165859 
0.0003652277248 
0.0004713073922 
0.000602108225 
0.0007851735019 
0.0002856647227 
0.0007171777479 
0.000558588184 
0.0002032459169 
0.0004456101351 
0.0001555851032 
0.0002867749601 
0.0003523952853 
0.0002662881197 
0.0001458450245 
0.0005265251793 
0.0005811399105 
0.0004496896106 
0.000371412812 
0.0004464398891 
0.0002151670942 
0.0003154918841 
0.0002633749724 
0.0002975214877 
0.0001970033789 
0.0004471948458 
0.0002514688472 
0.0006255289769 
0.0005604008171 
0.0006462043558 
0.0001072802734 
0.0006098669184 
0.0007129701524 
0.0001826795918 
0.0007189935008 
0.0004065909539 
0.0007504735772 
0.0005990770829 
0.0007581136505 
0.0003999537432 
0.0006315025196 
0.0004439309454 
0.001021165865 
0.0004624994492 
0.000498169818 
0.0001814974249 
0.0002243319531 
0.000293547718 
0.0001895110624 
0.0002771922178 
0.0002574123979 
0.0001053574461 
0.0002321673532 
0.0001373681065 
0.0001670368002 
0.0004765876838 
0.0004436742975 
0.0003896917378 
0.0003731914344 
0.0002896246341 
0.000378689753 
0.0004682364791 
0.0002944628655 
0.0004407972997 
0.0004210170483 
0.0003295219452 
0.0002760209598 
0.0003587126818 
0.0004107671127 
0.0003947874603 
0.0005357855806 
0.0004155042784 
0.0001929944267 
0.000421069874 
0.0001889442773 
0.0001672080594 
0.0004368531975 
0.0002593437203 
0.000233782189 
0.0002438537481 
0.000603509487 
0.0008961468691 
0.0004475142738 
0.0005379468707 
0.0004731240446 
0.0003689192513 
0.0002982099438 
0.0002177525458 
0.0003944498219 
0.0005023792605 
0.0003051558013 
0.0005135359117 
0.0005746868941 
0.0003147493801 
0.0004002140927 
0.000500153895 
0.0009116183923 
0.0008806684973 
0.000459059486 
0.0002321633588 
0.0003581462102 
0.0002278476341 
0.00030767012 
0.0003151856267 
0.0004889520046 
0.0007184743929 
0.0007168931241 
0.0001567218916 
0.0005570671587 
0.0004051864201 
0.0004950152404 
0.0003143809376 
0.0005049604821 
0.0005323591534 
0.0003205598603 
0.000590953441 
0.0002067996646 
0.0007535073018 
0.0004300849916 
0.0007012047375 
0.000477478556 
0.000323663706 
0.0007207321489 
0.0005105937797 
0.0005672810755 
0.0006961121759 
0.0004287791951 
0.000901845073 
0.0004330746797 
0.000657381752 
0.0004947928691 
0.0002799276296 
0.0007125700456 
0.000476359543 
0.000220033494 
0.000407186164 
0.0003996302647 
0.0006242582701 
0.0003407091612 
0.0003260847055 
0.0002571829883 
0.0004963793816 
0.0007167873345 
0.0004142083822 
0.0003116434447 
0.0001509078569 
0.0003250124749 
0.0004065427243 
0.0005044729216 
0.0006044151851 
0.0003244613945 
0.0003023049158 
0.0008076934538 
0.0003780718255 
0.0004960893581 
0.0004398032397 
0.0004970832618 
0.0002869689522 
0.0003772535302 
0.0005569825817 
0.000348846133 
0.0005184690497 
0.0003128184402 
0.0004825583194 
0.0004849888125 
0.0002782218435 
0.000166088167 
0.0004406917122 
0.0003829977564 
0.0004824302238 
0.0002340280332 
0.0003240064065 
0.0005154672232 
0.0003816652603 
0.0004687246362 
0.0007018128469 
0.0006108652169 
0.0002683672661 
0.0004907103375 
0.0003061051689 
0.000498036351 
0.0002311291683 
0.0002885162118 
0.0002911585265 
0.0002741715788 
0.0003037113016 
0.0004014135966 
0.0001708354205 
0.0003336723796 
0.000165130734 
0.0003618109251 
0.0004592100303 
0.0004379795711 
0.0005776666492 
0.0005066874148 
0.000493869352 
0.0002671187491 
0.000589005607 
0.0004194419417 
0.0001900812137 
0.0003043556924 
0.0002186678026 
0.0004948983899 
0.0003593958864 
0.0005622325221 
0.0006653229514 
0.0003659272614 
0.0004128561619 
0.0005956365364 
0.0006958659401 
0.000651666628 
0.0003658759062 
0.0004559075658 
0.000469172257 
0.0007318449995 
0.000315653767 
0.0004031031743 
0.0003290301926 
0.0004519009874 
0.0003600929994 
0.0003167577471 
0.0003256911605 
0.0003078593773 
0.0003603619093 
0.0004990793455 
0.0006678888176 
0.0002787029394 
0.0002230986814 
0.0003282219171 
0.0003695620612 
0.0003168180823 
0.000428225694 
0.0005178338939 
0.0004924189444 
0.0003624471407 
0.0002442859028 
0.0004905258183 
0.0004946405513 
0.0004537167535 
0.0007383058268 
0.0004639116473 
0.0003906586906 
0.0006728216621 
0.0001832396312 
0.0002770418167 
0.0007675802536 
0.0003658498965 
0.0006137968681 
0.000673957899 
0.0002904882898 
0.0006051628257 
0.0008722836899 
0.0006889833467 
0.0002603314874 
0.0007471648138 
0.0006018711842 
0.000269090687 
0.0003233319131 
0.000193950579 
0.0002196399214 
6.295606442e-05 
0.0002683992752 
0.0003119068667 
0.0002569165219 
0.000259210102 
0.0004413376474 
0.0005269961879 
0.000196121153 
0.0002307334926 
0.0004647122506 
0.0003457437989 
0.0003663093808 
0.0003189998728 
0.0004537329986 
0.0002444244272 
0.0001225613049 
0.0004302868774 
0.0002645440264 
0.0003472216793 
0.0001974750757 
0.0002288255305 
0.0002357734377 
0.0006211627282 
0.0006447606341 
0.0007680782779 
0.0004624281067 
0.0002828451103 
0.0007005928427 
0.0004217253635 
0.0005054759947 
0.0003827565632 
0.0002620693259 
0.0002912632421 
0.0003106874205 
0.0003701384412 
0.0004690100176 
0.0003442089929 
0.0002952192855 
0.0005834276312 
0.0003084294884 
0.0003750171557 
0.000275103134 
0.0003326429864 
0.0003646201249 
0.0003696552746 
0.0003762344845 
0.0001582010157 
0.0002010761643 
0.0002950260491 
0.000167845838 
0.0002484428018 
0.0005663710751 
0.000428650569 
0.0003855257379 
0.0002912148178 
0.0004854661394 
0.0003119554725 
0.0002989713485 
0.0002622736965 
0.0003318579113 
0.0001946079463 
0.0003383439178 
0.0002399295841 
0.000627006174 
0.0005504553394 
0.0007011821397 
0.0003133766554 
0.0002933920315 
0.0001393467764 
0.0003788951504 
0.0005723951064 
0.0002290827155 
0.0002994484625 
0.0004334996598 
0.000373592601 
0.0005463626835 
0.0005260556483 
0.0003352335885 
0.000329890624 
0.0003199943637 
0.0003989111975 
0.0004098517712 
0.0003041117416 
0.0008380494548 
0.0004425024716 
0.0003259859267 
0.0001807997959 
0.0005276194439 
0.0003722192583 
0.0005310214468 
0.0001354670837 
0.0003843442819 
0.0004280984681 
0.0002355724532 
0.0003168823637 
0.0006622376712 
0.0004382715208 
0.0001687240347 
0.0002465727052 
0.0003210046939 
0.000324008924 
0.0002966812786 
0.0008851841516 
0.0003760657132 
0.0006025594454 
0.0006488032053 
0.0005465698608 
0.000346172238 
0.0002287374857 
0.0001410189974 
0.0002278131442 
0.0002905508046 
0.0004047432505 
0.000394385645 
0.0002669227788 
0.0004214286102 
0.0009899274805 
0.0004204492445 
0.0006320418417 
0.0004568526341 
0.0002589933671 
0.0002667292276 
0.0003803122337 
0.0003182825973 
0.0003882138395 
0.000420122313 
0.0002232737492 
0.0004926539403 
0.0006624967793 
0.0004226525671 
0.0003192597408 
0.0002771272121 
0.0007165425453 
0.0003192891064 
0.0003379576378 
0.000472489234 
0.0003634540968 
0.0003665283487 
0.0003409141133 
0.0002440071047 
0.0003782848399 
0.0002129848959 
0.0002967858636 
0.0002682811994 
0.0006106069149 
0.0003749949311 
0.0002939964376 
0.0004404857379 
0.0003180576899 
0.0003806044059 
0.0002877681466 
0.0002934545684 
0.0001979113351 
0.0002821760065 
0.0002605507844 
0.000502296226 
0.0007112828069 
0.0005363962213 
0.0005098188928 
0.00058414602 
0.0008529221825 
0.0003456695125 
0.0003831411602 
0.0002980484316 
0.0003765539323 
0.0003326266049 
0.0003712337016 
0.0002846584404 
0.000250275453 
0.0002833404313 
0.000636477304 
0.0004710941223 
0.0009729834455 
0.0005661418249 
0.0004752536427 
0.0002819929001 
0.0005865835227 
0.0006438221786 
0.0002852427996 
0.0002215173077 
0.0003008240751 
0.0002990696236 
0.0002019957515 
0.0001354926359 
0.0002631163439 
8.093201011e-05 
0.0004522239928 
0.000515679654 
0.0004933746907 
0.0003694490059 
0.0004153972355 
0.0005363173613 
0.0003453627056 
0.000598883134 
0.000400879053 
0.0002589410547 
0.0001887187374 
0.0004025507415 
0.000317039021 
0.0002151162784 
0.0005133300409 
0.00060332606 
0.0004654118451 
0.0004929710083 
0.0007237966406 
0.000637701426 
0.0003901285471 
0.0006729945921 
0.0005677829975 
0.0003303027768 
0.0003332170096 
0.0002217552157 
0.0002054132686 
0.0001910927089 
0.0005632163191 
0.0003460840293 
0.000266002585 
0.0003546746022 
0.0008171950198 
0.0006209496794 
0.0004363089705 
0.0004244415586 
0.0004188324949 
0.000371553674 
0.0003468841696 
0.0002614432315 
0.0003823325143 
0.0007657929353 
0.0005524919405 
0.0002877152645 
0.0003336930396 
0.0004783658215 
0.0003426668778 
0.0005080268841 
0.0006095581867 
0.0005438782409 
0.000363685666 
0.0002032277481 
0.000329682855 
0.000326653979 
0.0004227993811 
0.0004498091569 
0.0002881799858 
0.0002451799558 
0.0002069009071 
0.0004697301047 
0.0003902594201 
0.0003742684941 
0.0005427535017 
0.0005474018761 
0.0005170809958 
0.0004272358679 
0.0004648229756 
0.000619109003 
0.0005444535373 
0.0004202061331 
0.0005040777644 
0.0002511573042 
0.0004733792691 
0.000372028939 
0.0004336791473 
0.0003846519743 
0.0004197886792 
0.0004393040716 
0.0002800490479 
0.0002399466089 
0.000504969808 
0.000345307233 
0.0001345046445 
0.0003307131771 
0.0002279709636 
0.000286151183 
0.0002984626792 
0.0003623042418 
0.0002431712725 
0.0002493695703 
0.0003837403944 
0.0003060240904 
0.0002095112899 
0.0003127225365 
0.0002137452091 
0.0002267413846 
0.0003430934233 
0.0004419736955 
0.0005417436286 
0.0004355549649 
0.0003817836601 
0.0002793058114 
0.0001488683971 
0.0003759447085 
0.0002198235276 
0.0004264736806 
0.0004894756074 
0.0002866563372 
0.0004362197301 
0.0002728030709 
0.0002436589342 
0.0002003288186 
0.0002579118848 
9.518273763e-05 
0.0003425954817 
0.000345029707 
0.0002159421966 
0.0003682977175 
0.0001370849527 
0.0003091233037 
0.0006209734889 
0.000482731685 
0.0001764036458 
0.0002710475003 
0.0001907279361 
0.0003609288157 
0.0003197857364 
0.0006033992263 
0.000238571876 
0.0003870099583 
0.0003175374298 
0.0002961599685 
0.000601375006 
0.0007032350998 
0.0004033835637 
0.0005175963115 
0.0006139004844 
0.0004258883549 
0.0004205567615 
0.0003449970826 
0.000587365394 
0.0004681584997 
0.0007291407282 
0.0006018259177 
0.000322847427 
0.0002685260808 
0.0002787874215 
0.0003511155891 
0.0003727691737 
0.0002762293231 
0.0004682407602 
0.0004849884947 
0.0005901199513 
0.0003315394081 
0.0004871750149 
0.0002262607959 
0.0005168539206 
0.0004451912376 
0.0003516708528 
0.0002138818986 
0.0002848434995 
0.000143963582 
0.0002999830059 
0.0006848514401 
0.0001991609693 
0.0004835512712 
0.0002819993611 
0.0003074285857 
0.000340139401 
0.0004078970215 
0.0004722840232 
0.0002476018277 
0.0003873806942 
0.0004371457466 
0.0002455081034 
0.0004866900955 
0.0002768810384 
0.0005613039321 
0.0004690964458 
0.0005546539921 
0.0007454753966 
0.0005782814825 
0.0003844557427 
0.0005896666776 
0.0002994409187 
0.000563530757 
0.0004792387723 
0.0002346060209 
0.0003543504728 
0.0001928479543 
0.0003565435728 
0.0004029045725 
0.0004353544003 
0.0004151387888 
0.0002590367567 
0.0005008162494 
0.0006522088407 
0.0006236620801 
0.0005563756696 
0.0005473557525 
0.0004331849841 
0.0003895133482 
0.0003027540679 
0.0002837235107 
0.0003366962991 
0.0002099449705 
0.0002359658408 
0.0003194484244 
0.0002451402951 
0.0001459123782 
0.0006113428064 
0.0002961865187 
0.0004423208898 
0.0004525673646 
0.0005112232324 
0.0004999920214 
0.0003957983998 
0.0002314981741 
0.0003388474173 
0.0001101628367 
0.0002675752001 
0.000290803587 
0.0003516218176 
0.0002253491753 
0.0002677542735 
0.0003619291819 
0.0006335015605 
0.0004410362427 
0.0008106292997 
0.000596750042 
0.0002963842456 
0.0007040368698 
0.000572384748 
0.0002574074008 
0.000740026463 
0.0006919753798 
0.0006833221064 
0.0004780676333 
0.0006015347733 
0.0003445188465 
0.0006959202278 
0.0004959000426 
0.0005560342716 
0.0003924937524 
0.0005390860023 
0.0005786768728 
0.0003034595237 
0.0004948580294 
0.000555540816 
0.0005804220985 
0.000274046087 
0.0004965390578 
9.050839207e-05 
0.0003012814033 
0.0003346576736 
0.0004185730354 
0.0002497134592 
0.0002379925758 
0.0002449609833 
0.0002044804525 
0.0003115548729 
0.0004043769609 
0.0002466939872 
0.0005277362626 
0.0001680155046 
0.0004074498948 
0.0003460643412 
0.000351651789 
0.000363269558 
0.0006107847383 
0.0004922541798 
0.0007945714887 
0.0005656729868 
0.0004879898459 
0.0003435882302 
0.0007273734365 
0.0003569235363 
0.0003446682091 
0.0002685380151 
0.0004309181057 
0.0004077107372 
0.0001915967864 
0.0003318853968 
0.0006301055946 
0.0004980275067 
0.0002977100224 
0.0003749226216 
0.0002813308415 
0.0006633952633 
0.0003777325991 
0.0004366929612 
0.00057525302 
0.0003510275734 
0.0003371942633 
0.0005965388506 
0.0005376166655 
0.0003345451041 
0.0005150893384 
0.0004355751171 
0.0006080957106 
0.000398106865 
0.000509088775 
0.0003343712103 
0.0002223290894 
0.0001848886972 
0.0002316180867 
0.0002804024752 
0.0003573212626 
0.0001809293268 
0.0004270779013 
0.0001212074643 
0.0001937970443 
0.0003864098983 
0.0001812971661 
0.0002167008669 
0.0002436643165 
0.0004413128904 
0.0005385334264 
0.000436019248 
0.0009372328046 
0.0004372872908 
0.0006805178369 
0.0002599669491 
0.0002768581834 
0.0006349770667 
0.0004006167639 
0.0003620257348 
0.0006838028318 
0.0004287515493 
0.0005130625226 
0.0001524238434 
0.0004433035723 
0.0004307297025 
0.0002502167643 
0.0004605885213 
0.0003802405816 
0.0004951306796 
0.0002951703107 
0.000356786745 
0.0001770214694 
0.0005484152653 
0.000434628715 
0.0006837394347 
0.0007858685399 
0.0004924515836 
0.0003308148998 
0.000299288572 
0.0002448581646 
0.0002940773595 
0.0005972000319 
0.0006216488925 
0.0004816006339 
0.0006226200024 
0.0003363547818 
0.000202395162 
0.0001869598111 
0.0002469340934 
0.0002874359445 
0.0004277273004 
0.0007254166342 
0.0005853012089 
0.0006049813767 
0.0002754134443 
0.0005067983516 
0.0003058277446 
0.0003817434012 
0.0002386085726 
0.0002539199528 
0.0003032848794 
0.000295857651 
0.0003011474164 
0.0002176544129 
0.0003524034059 
0.0004426748807 
0.0003811717201 
0.0003945289251 
0.0002500444609 
0.0006468966442 
0.000722910373 
0.000520562159 
0.0004602725437 
0.0004587432632 
0.0002864071879 
0.0004146361726 
0.0002718942339 
0.0002729356163 
0.0002394168152 
0.0002942714227 
0.0003768316021 
0.000401230018 
0.0001781803859 
0.0003488595825 
0.0001791222518 
0.0004137607647 
0.0006129899627 
0.0004491161341 
0.0005857799538 
0.0004843848739 
0.0005195063228 
0.0003654367268 
0.0006067349101 
0.0004409792774 
0.0003442169645 
0.0004064312199 
0.0004303613377 
0.0003833629222 
0.000638160558 
0.0003114207379 
0.0002439002995 
0.0003562182827 
0.0005363178661 
6.771395551e-05 
0.0003851858031 
0.0007300621641 
0.000731408914 
0.0005372843528 
0.0004684470544 
0.0005252059957 
0.000400820342 
0.0001983194654 
0.0003531102229 
0.0003693162941 
0.0003889853062 
0.0002473698067 
0.0004422922221 
0.000375124451 
0.0005600050794 
0.0002404155062 
0.0004356847337 
0.0003624876098 
0.0002454155945 
9.964034077e-05 
0.0004235214637 
0.0003567921729 
0.000337032919 
0.0002330026472 
0.0004220781549 
0.0004124520604 
0.0002576955148 
0.0005793425676 
0.0007303702032 
0.000330473522 
0.0007224925001 
0.0002957976775 
0.0004479939976 
0.0002509180638 
0.0003106881872 
0.0004217372509 
0.0002315479426 
0.0003707323003 
0.0007370690063 
0.0005904173179 
0.0004782171896 
0.0004321276262 
0.0003472471004 
0.0003354429186 
0.0005567859632 
0.0004724754456 
0.0003823493211 
0.0003386307196 
0.0002715069447 
0.000401038013 
0.000301709538 
0.0001626146363 
0.0001683566729 
0.0004273859041 
0.0005750562295 
0.0005914988092 
0.0003959119231 
0.000505940534 
0.0003982217539 
0.0005019975161 
0.0003040596516 
0.0006295209415 
0.000370733086 
0.000742287919 
0.0002998233954 
0.0004750415098 
0.0005667118719 
0.0002459601168 
0.0003234058527 
0.0007499957056 
0.0002188467194 
0.0004400965384 
0.0004530570049 
0.0003870384468 
0.0003847475182 
0.0006055620914 
0.0004716292035 
0.0004383759895 
0.0005730232253 
0.0007272890269 
0.0004009666043 
0.0004309801585 
0.0006701775243 
0.0005895503069 
0.0002539212047 
0.0002638695872 
0.0004988410788 
0.0005075848477 
0.0006685542514 
0.0002358284976 
0.000441035709 
0.0004288394178 
0.0004463813959 
0.0003227968229 
0.0001302635101 
0.0002828776125 
0.0003602781163 
0.0002143647604 
0.0003787707244 
0.0005702330804 
0.0003082996952 
0.0004200168819 
0.0002634003928 
0.0001476640824 
0.0001876993907 
0.0002470181483 
0.0004617240707 
0.0002223017426 
0.0005155670124 
0.000455977935 
0.0002576497696 
0.0004640837445 
0.0003376581234 
0.0006201693674 
0.000429875717 
0.0006435224466 
0.0006448901458 
0.0007022881869 
0.0005664137517 
0.0002061210486 
0.0004356990662 
0.0004466522 
0.0001769532397 
0.0001782045827 
0.0001967055362 
0.0004947485028 
0.0003528333065 
0.0002593435988 
0.0003647664139 
0.0001848839694 
0.000204013029 
0.0004177422566 
0.0002027648968 
0.000383760499 
0.0001799881062 
0.0003841741642 
0.00068605386 
0.0005047125154 
0.0002908468443 
0.0004189797381 
0.0004263057982 
0.0004105454469 
0.0004225271371 
0.0005536904156 
0.0005312262126 
0.0006601640476 
0.0009366561881 
0.0004768140957 
0.0007303699201 
0.0003647104732 
0.0007791138006 
0.0003108412136 
0.0004583848145 
0.0002804799955 
0.0004213837199 
0.0002871522578 
0.000196371551 
0.0005130628378 
0.000434466363 
0.0002582092524 
0.0003792402543 
0.0002266917412 
0.0004785300326 
0.0003327287285 
0.0003583015338 
0.0005568853703 
0.0002840892253 
0.0001778396995 
0.0002452868836 
0.0002253226144 
0.0002620881453 
0.0005385672441 
0.000329675337 
0.0003976837093 
0.0005210036848 
0.0003209246206 
0.0003312083902 
0.0006590520357 
0.0005300052645 
0.0005966612834 
0.0006966497387 
0.0006774873301 
0.0002049788767 
0.001028712704 